# vtk DataFile Version 2.0
TS=970000. Made by PostProcessing (CC-BY-NC)
ASCII 
DATASET POLYDATA
POINTS 10 double
0.00299868 0.00075 0.00191224 
0.00130039 0.00075 0.00204902 
0.00205042 0.00075 0.00075 
0.00394695 0.00075 0.00075 
0.00474865 0.00075 0.00201778 
0.00555035 0.00075 0.00075 
0.00305035 0.00075 0.00447904 
0.00224865 0.00075 0.00321126 
0.00380039 0.00075 0.00318002 
0.00549868 0.00075 0.0033168 
VERTICES 10 20
1 0
1 1
1 2
1 3
1 4
1 5
1 6
1 7
1 8
1 9
POINT_DATA 10
VECTORS omega double 0 -82.6022 0 
0 -82.6022 0 
0 82.6022 0 
0 82.6022 0 
0 -82.6022 0 
0 82.6022 0 
0 -82.6022 0 
0 82.6022 0 
0 82.6022 0 
0 82.6022 0 

