ITEM: TIMESTEP
0
ITEM: NUMBER OF ATOMS
10
ITEM: BOX BOUNDS pp pp pp
0 0.005
0 0.001
0 0.01
ITEM: ATOMS id x y z omegax omegay omegaz 
1 0.00075 0.00075 0.00075 0 0 0 
2 0.00225 0.00075 0.00075 0 0 0 
4 0.00075 0.00075 0.00225 0 0 0 
5 0.00225 0.00075 0.00225 0 0 0 
3 0.00375 0.00075 0.00075 0 0 0 
6 0.00375 0.00075 0.00225 0 0 0 
7 0.00075 0.00075 0.00375 0 0 0 
8 0.00225 0.00075 0.00375 0 0 0 
9 0.00375 0.00075 0.00375 0 0 0 
10 0.00075 0.00075 0.00525 0 0 0 
ITEM: TIMESTEP
10000
ITEM: NUMBER OF ATOMS
10
ITEM: BOX BOUNDS pp pp pp
0 0.005
0 0.001
0 0.01
ITEM: ATOMS id x y z omegax omegay omegaz 
1 0.000753057 0.00075 0.00075 0 0.813965 0 
2 0.00225306 0.00075 0.00075 0 0.815796 0 
4 0.000755443 0.00075 0.00225 0 -0.173875 0 
5 0.00225544 0.00075 0.00225 0 -0.177177 0 
3 0.00375306 0.00075 0.00075 0 0.816712 0 
6 0.00375544 0.00075 0.00225 0 -0.17856 0 
7 0.000754911 0.00075 0.00375 0 0.0316435 0 
8 0.00225493 0.00075 0.00375 0 0.0384761 0 
9 0.00375493 0.00075 0.00375 0 0.0405632 0 
10 0.000755014 0.00075 0.00525 0 -0.00700679 0 
ITEM: TIMESTEP
20000
ITEM: NUMBER OF ATOMS
10
ITEM: BOX BOUNDS pp pp pp
0 0.005
0 0.001
0 0.01
ITEM: ATOMS id x y z omegax omegay omegaz 
1 0.000762186 0.00075 0.00075 0 1.617 0 
2 0.00226222 0.00075 0.00075 0 1.62395 0 
4 0.000771901 0.00075 0.00224997 0 -0.290287 0 
5 0.0022719 0.00075 0.00224997 0 -0.306604 0 
3 0.00376224 0.00075 0.00075 0 1.6301 0 
6 0.0037719 0.00075 0.00224997 0 -0.313475 0 
7 0.000769747 0.00075 0.00374997 0 0.00148046 0 
8 0.00226978 0.00075 0.00374997 0 0.0102957 0 
9 0.00376978 0.00075 0.00374997 0 0.0215431 0 
10 0.000770023 0.00075 0.00524997 0 0.0132597 0 
ITEM: TIMESTEP
30000
ITEM: NUMBER OF ATOMS
10
ITEM: BOX BOUNDS pp pp pp
0 0.005
0 0.001
0 0.01
ITEM: ATOMS id x y z omegax omegay omegaz 
1 0.000777273 0.00075 0.00075 0 2.40551 0 
2 0.00227741 0.00075 0.00075 0 2.42777 0 
4 0.00079974 0.00075 0.00224983 0 -0.32013 0 
5 0.00229974 0.00075 0.00224983 0 -0.367459 0 
3 0.00377748 0.00075 0.00075 0 2.43442 0 
6 0.00379974 0.00075 0.00224983 0 -0.377346 0 
7 0.000794779 0.00075 0.00374982 0 -0.147458 0 
8 0.00229478 0.00075 0.00374983 0 -0.0940016 0 
9 0.00379478 0.00075 0.00374983 0 -0.0813553 0 
10 0.000794914 0.00075 0.00524982 0 0.0885451 0 
ITEM: TIMESTEP
40000
ITEM: NUMBER OF ATOMS
10
ITEM: BOX BOUNDS pp pp pp
0 0.005
0 0.001
0 0.01
ITEM: ATOMS id x y z omegax omegay omegaz 
1 0.000798147 0.00075 0.00075 0 3.15422 0 
2 0.00229858 0.00075 0.00075 0 3.20829 0 
4 0.00083956 0.00075 0.00224943 0 -0.169623 0 
5 0.00233956 0.00075 0.00224944 0 -0.285674 0 
3 0.00379872 0.00075 0.00075 0 3.22451 0 
6 0.00383956 0.00075 0.00224944 0 -0.312069 0 
7 0.000830412 0.00075 0.0037494 0 -0.492044 0 
8 0.00233041 0.00075 0.00374941 0 -0.377319 0 
9 0.00383041 0.00075 0.00374942 0 -0.349787 0 
10 0.000829466 0.00075 0.0052494 0 0.243038 0 
ITEM: TIMESTEP
50000
ITEM: NUMBER OF ATOMS
10
ITEM: BOX BOUNDS pp pp pp
0 0.005
0 0.001
0 0.01
ITEM: ATOMS id x y z omegax omegay omegaz 
1 0.000824528 0.00075 0.00075 0 3.88402 0 
2 0.00232559 0.00075 0.00075 0 3.99847 0 
4 0.000892277 0.00075 0.00224847 0 0.179662 0 
5 0.00239228 0.00075 0.00224852 0 -0.059792 0 
3 0.00382586 0.00075 0.00075 0 4.00245 0 
6 0.00389228 0.00075 0.00224853 0 -0.0720732 0 
7 0.000877317 0.00075 0.00374839 0 -1.08467 0 
8 0.00237732 0.00075 0.00374844 0 -0.852938 0 
9 0.00387732 0.00075 0.00374845 0 -0.838385 0 
10 0.000873327 0.00075 0.00524839 0 0.500948 0 
