# vtk DataFile Version 2.0
TS=210000. Made by PostProcessing (CC-BY-NC)
ASCII 
DATASET POLYDATA
POINTS 10 double
0.00223576 0.00075 0.000751759 
0.00315788 0.00075 0.00204898 
0.00132595 0.00075 0.00194516 
0.0039163 0.00075 0.000751188 
0.00468196 0.00075 0.00208183 
0.00541701 0.00075 0.000751521 
0.00217671 0.00075 0.00318741 
0.00382028 0.00075 0.00339871 
0.00558116 0.00075 0.00336326 
0.00182278 0.00075 0.00465965 
VERTICES 10 20
1 0
1 1
1 2
1 3
1 4
1 5
1 6
1 7
1 8
1 9
POINT_DATA 10
VECTORS omega double 0 18.7585 0 
0 -27.8741 0 
0 -19.8048 0 
0 20.5261 0 
0 -20.5315 0 
0 17.0642 0 
0 13.7747 0 
0 4.67139 0 
0 24.7244 0 
0 -25.4686 0 

