# vtk DataFile Version 2.0
TS=60000. Made by PostProcessing (CC-BY-NC)
ASCII 
DATASET POLYDATA
POINTS 10 double
0.000856499 0.00075 0.00075 
0.00235884 0.00075 0.00075 
0.000959172 0.00075 0.00224648 
0.00245917 0.00075 0.00224664 
0.00385886 0.00075 0.00075 
0.00395917 0.00075 0.00224664 
0.000936105 0.00075 0.0037463 
0.00243611 0.00075 0.00374646 
0.00393611 0.00075 0.00374646 
0.00092602 0.00075 0.00524627 
VERTICES 10 20
1 0
1 1
1 2
1 3
1 4
1 5
1 6
1 7
1 8
1 9
POINT_DATA 10
VECTORS omega double 0 4.6379 0 
0 4.87226 0 
0 0.666973 0 
0 0.188653 0 
0 4.79105 0 
0 0.348044 0 
0 -1.94063 0 
0 -1.46524 0 
0 -1.62544 0 
0 0.858582 0 

