# vtk DataFile Version 2.0
TS=40000. Made by PostProcessing (CC-BY-NC)
ASCII 
DATASET POLYDATA
POINTS 10 double
0.000798147 0.00075 0.00075 
0.00229858 0.00075 0.00075 
0.00083956 0.00075 0.00224943 
0.00233956 0.00075 0.00224944 
0.00379872 0.00075 0.00075 
0.00383956 0.00075 0.00224944 
0.000830412 0.00075 0.0037494 
0.00233041 0.00075 0.00374941 
0.00383041 0.00075 0.00374942 
0.000829466 0.00075 0.0052494 
VERTICES 10 20
1 0
1 1
1 2
1 3
1 4
1 5
1 6
1 7
1 8
1 9
POINT_DATA 10
VECTORS omega double 0 3.15422 0 
0 3.20829 0 
0 -0.169623 0 
0 -0.285674 0 
0 3.22451 0 
0 -0.312069 0 
0 -0.492044 0 
0 -0.377319 0 
0 -0.349787 0 
0 0.243038 0 

