# vtk DataFile Version 2.0
TS=820000. Made by PostProcessing (CC-BY-NC)
ASCII 
DATASET POLYDATA
POINTS 10 double
0.00356123 0.00075 0.00075 
0.0028112 0.00075 0.00204902 
0.00206116 0.00075 0.00075 
0.00450949 0.00075 0.00191224 
0.00625946 0.00075 0.00201778 
0.00545776 0.00075 0.00075 
0.00375946 0.00075 0.00321126 
0.00200949 0.00075 0.0033168 
0.00456116 0.00075 0.00447904 
0.0053112 0.00075 0.00318002 
VERTICES 10 20
1 0
1 1
1 2
1 3
1 4
1 5
1 6
1 7
1 8
1 9
POINT_DATA 10
VECTORS omega double 0 68.3168 0 
0 -68.3168 0 
0 68.3168 0 
0 -68.3168 0 
0 -68.3168 0 
0 68.3168 0 
0 68.3168 0 
0 68.3168 0 
0 -68.3168 0 
0 68.3168 0 

