# vtk DataFile Version 2.0
TS=200000. Made by PostProcessing (CC-BY-NC)
ASCII 
DATASET POLYDATA
POINTS 10 double
0.00208313 0.00075 0.000752376 
0.00305353 0.00075 0.00207645 
0.00117697 0.00075 0.00194992 
0.00376747 0.00075 0.00075011 
0.00463475 0.00075 0.00214224 
0.00527336 0.00075 0.000750971 
0.00203702 0.00075 0.00318991 
0.00382676 0.00075 0.00343965 
0.00551644 0.00075 0.00336059 
0.00176999 0.00075 0.00472547 
VERTICES 10 20
1 0
1 1
1 2
1 3
1 4
1 5
1 6
1 7
1 8
1 9
POINT_DATA 10
VECTORS omega double 0 19.9091 0 
0 -19.8341 0 
0 -12.39 0 
0 16.3421 0 
0 -17.6374 0 
0 13.6087 0 
0 12.4696 0 
0 11.6146 0 
0 24.7244 0 
0 -9.80591 0 

