# vtk DataFile Version 2.0
TS=730000. Made by PostProcessing (CC-BY-NC)
ASCII 
DATASET POLYDATA
POINTS 10 double
0.00193736 0.00075 0.00201778 
0.000187393 0.00075 0.00191224 
0.00113566 0.00075 0.00075 
0.0034891 0.00075 0.00204902 
0.00273906 0.00075 0.00075 
0.00423913 0.00075 0.00075 
0.000239062 0.00075 0.00447904 
0.000989096 0.00075 0.00318002 
0.00268739 0.00075 0.0033168 
0.00443736 0.00075 0.00321126 
VERTICES 10 20
1 0
1 1
1 2
1 3
1 4
1 5
1 6
1 7
1 8
1 9
POINT_DATA 10
VECTORS omega double 0 -59.7455 0 
0 -59.7455 0 
0 59.7455 0 
0 -59.7455 0 
0 59.7455 0 
0 59.7455 0 
0 -59.7455 0 
0 59.7455 0 
0 59.7455 0 
0 59.7455 0 

