# vtk DataFile Version 2.0
TS=840000. Made by PostProcessing (CC-BY-NC)
ASCII 
DATASET POLYDATA
POINTS 10 double
0.0031002 0.00075 0.00075 
0.0022985 0.00075 0.00201778 
0.0014968 0.00075 0.00075 
0.00460027 0.00075 0.00075 
0.00385023 0.00075 0.00204902 
0.00554853 0.00075 0.00191224 
0.00304853 0.00075 0.0033168 
0.00135023 0.00075 0.00318002 
0.0047985 0.00075 0.00321126 
0.0056002 0.00075 0.00447904 
VERTICES 10 20
1 0
1 1
1 2
1 3
1 4
1 5
1 6
1 7
1 8
1 9
POINT_DATA 10
VECTORS omega double 0 70.2215 0 
0 -70.2215 0 
0 70.2215 0 
0 70.2215 0 
0 -70.2215 0 
0 -70.2215 0 
0 70.2215 0 
0 70.2215 0 
0 70.2215 0 
0 -70.2215 0 

