# vtk DataFile Version 2.0
TS=300000. Made by PostProcessing (CC-BY-NC)
ASCII 
DATASET POLYDATA
POINTS 10 double
0.00249401 0.00075 0.00191426 
0.00154818 0.00075 0.000750023 
0.00343992 0.00075 0.000750008 
0.00424383 0.00075 0.00201641 
0.00504773 0.00075 0.000750007 
0.00579797 0.00075 0.00204894 
0.00174372 0.00075 0.00321328 
0.00251031 0.00075 0.00450267 
0.00329795 0.00075 0.00318072 
0.00499376 0.00075 0.00331549 
VERTICES 10 20
1 0
1 1
1 2
1 3
1 4
1 5
1 6
1 7
1 8
1 9
POINT_DATA 10
VECTORS omega double 0 -20.6047 0 
0 19.37 0 
0 19.7332 0 
0 -21.0049 0 
0 20.7677 0 
0 -21.8923 0 
0 20.5405 0 
0 -11.8215 0 
0 20.1231 0 
0 15.7925 0 

