# vtk DataFile Version 2.0
TS=190000. Made by PostProcessing (CC-BY-NC)
ASCII 
DATASET POLYDATA
POINTS 10 double
0.00192845 0.00075 0.000755247 
0.00290609 0.00075 0.00208862 
0.00110132 0.00075 0.0020086 
0.00359052 0.00075 0.000751824 
0.00453528 0.00075 0.00215071 
0.00509064 0.00075 0.000751153 
0.00197466 0.00075 0.00326833 
0.00385391 0.00075 0.00348729 
0.00543572 0.00075 0.00335785 
0.00173348 0.00075 0.00474949 
VERTICES 10 20
1 0
1 1
1 2
1 3
1 4
1 5
1 6
1 7
1 8
1 9
POINT_DATA 10
VECTORS omega double 0 20.5017 0 
0 -38.3368 0 
0 -22.4486 0 
0 23.5091 0 
0 -24.7863 0 
0 19.5865 0 
0 3.7089 0 
0 11.6146 0 
0 11.5256 0 
0 2.38151 0 

