# vtk DataFile Version 2.0
TS=240000. Made by PostProcessing (CC-BY-NC)
ASCII 
DATASET POLYDATA
POINTS 10 double
0.00264309 0.00075 0.000750228 
0.00345069 0.00075 0.00201594 
0.00170409 0.00075 0.00192063 
0.00426003 0.00075 0.000750295 
0.00496524 0.00075 0.00207967 
0.00576289 0.00075 0.000750777 
0.00251088 0.00075 0.00318531 
0.00404765 0.00075 0.0033934 
0.0059507 0.00075 0.0032205 
0.00199016 0.00075 0.0045925 
VERTICES 10 20
1 0
1 1
1 2
1 3
1 4
1 5
1 6
1 7
1 8
1 9
POINT_DATA 10
VECTORS omega double 0 16.1637 0 
0 -18.8487 0 
0 -19.37 0 
0 19.2028 0 
0 -20.4205 0 
0 14.1819 0 
0 11.9553 0 
0 12.4872 0 
0 22.9699 0 
0 -26.2293 0 

