# vtk DataFile Version 2.0
TS=310000. Made by PostProcessing (CC-BY-NC)
ASCII 
DATASET POLYDATA
POINTS 10 double
0.00264766 0.00075 0.00191329 
0.00170069 0.00075 0.00075 
0.00359466 0.00075 0.000750005 
0.0043978 0.00075 0.00201728 
0.00520036 0.00075 0.000750005 
0.00595057 0.00075 0.00204898 
0.00190385 0.00075 0.00321597 
0.00271176 0.00075 0.00448586 
0.0034505 0.00075 0.00318037 
0.00513487 0.00075 0.00332544 
VERTICES 10 20
1 0
1 1
1 2
1 3
1 4
1 5
1 6
1 7
1 8
1 9
POINT_DATA 10
VECTORS omega double 0 -19.9702 0 
0 20.4309 0 
0 20.6638 0 
0 -19.8326 0 
0 20.5745 0 
0 -20.8566 0 
0 22.4817 0 
0 -13.3031 0 
0 20.8707 0 
0 20.6859 0 

