# vtk DataFile Version 2.0
TS=290000. Made by PostProcessing (CC-BY-NC)
ASCII 
DATASET POLYDATA
POINTS 10 double
0.00234309 0.00075 0.00191425 
0.00139729 0.00075 0.00075 
0.00328888 0.00075 0.00075 
0.00409283 0.00075 0.00201636 
0.00489679 0.00075 0.00075 
0.00564704 0.00075 0.00204889 
0.00159283 0.00075 0.00321314 
0.00232783 0.00075 0.00452073 
0.00314704 0.00075 0.00318061 
0.00487901 0.00075 0.00333735 
VERTICES 10 20
1 0
1 1
1 2
1 3
1 4
1 5
1 6
1 7
1 8
1 9
POINT_DATA 10
VECTORS omega double 0 -19.5171 0 
0 19.5169 0 
0 19.5167 0 
0 -19.517 0 
0 19.5175 0 
0 -19.5167 0 
0 19.5174 0 
0 -17.0478 0 
0 19.5167 0 
0 16.2237 0 

