# vtk DataFile Version 2.0
TS=110000. Made by PostProcessing (CC-BY-NC)
ASCII 
DATASET POLYDATA
POINTS 10 double
0.00109498 0.00075 0.00075 
0.00261399 0.00075 0.00075 
0.00157434 0.00075 0.00217135 
0.00307432 0.00075 0.00217762 
0.00411399 0.00075 0.00075 
0.00457469 0.00075 0.0021775 
0.00144989 0.00075 0.00366617 
0.00294987 0.00075 0.00367245 
0.00444987 0.00075 0.0036723 
0.00128487 0.00075 0.00515707 
VERTICES 10 20
1 0
1 1
1 2
1 3
1 4
1 5
1 6
1 7
1 8
1 9
POINT_DATA 10
VECTORS omega double 0 8.0253 0 
0 8.8383 0 
0 9.24671 0 
0 7.50026 0 
0 8.84036 0 
0 7.44776 0 
0 -13.9211 0 
0 -12.1805 0 
0 -12.0742 0 
0 4.69211 0 

