# vtk DataFile Version 2.0
TS=80000. Made by PostProcessing (CC-BY-NC)
ASCII 
DATASET POLYDATA
POINTS 10 double
0.00093672 0.00075 0.00075 
0.00244301 0.00075 0.00075 
0.00114177 0.00075 0.00223592 
0.00264177 0.00075 0.00223677 
0.00394301 0.00075 0.00075 
0.00414232 0.00075 0.0022367 
0.00109302 0.00075 0.00373513 
0.00259302 0.00075 0.00373598 
0.00409302 0.00075 0.00373589 
0.00105481 0.00075 0.00523464 
VERTICES 10 20
1 0
1 1
1 2
1 3
1 4
1 5
1 6
1 7
1 8
1 9
POINT_DATA 10
VECTORS omega double 0 6.03973 0 
0 6.39975 0 
0 2.62534 0 
0 1.91357 0 
0 6.3981 0 
0 1.94174 0 
0 -4.87695 0 
0 -4.15991 0 
0 -4.21252 0 
0 1.95231 0 

