# vtk DataFile Version 2.0
TS=120000. Made by PostProcessing (CC-BY-NC)
ASCII 
DATASET POLYDATA
POINTS 10 double
0.00115791 0.00075 0.00075 
0.00268372 0.00075 0.00075 
0.00177182 0.00075 0.00211862 
0.00327178 0.00075 0.00212992 
0.00418372 0.00075 0.00075 
0.00477179 0.00075 0.00212992 
0.00160887 0.00075 0.00360974 
0.00310883 0.00075 0.00362105 
0.00460883 0.00075 0.00362104 
0.00136355 0.00075 0.00508954 
VERTICES 10 20
1 0
1 1
1 2
1 3
1 4
1 5
1 6
1 7
1 8
1 9
POINT_DATA 10
VECTORS omega double 0 8.77745 0 
0 9.79958 0 
0 12.612 0 
0 10.2891 0 
0 9.79893 0 
0 10.3096 0 
0 -18.2439 0 
0 -15.9204 0 
0 -15.9545 0 
0 5.78168 0 

