# vtk DataFile Version 2.0
TS=140000. Made by PostProcessing (CC-BY-NC)
ASCII 
DATASET POLYDATA
POINTS 10 double
0.00127076 0.00075 0.000751793 
0.00214519 0.00075 0.00214405 
0.000278302 0.00075 0.00195 
0.0028003 0.00075 0.000762136 
0.00369841 0.00075 0.00213351 
0.00437778 0.00075 0.00075007 
0.0018337 0.00075 0.00364103 
0.00341652 0.00075 0.00361218 
0.00499055 0.00075 0.00342458 
0.00148707 0.00075 0.00510176 
VERTICES 10 20
1 0
1 1
1 2
1 3
1 4
1 5
1 6
1 7
1 8
1 9
POINT_DATA 10
VECTORS omega double 0 0.916332 0 
0 -5.77869 0 
0 13.8176 0 
0 9.65322 0 
0 -9.88104 0 
0 15.051 0 
0 0.855019 0 
0 -4.91149 0 
0 -21.8779 0 
0 -4.84802 0 

