# vtk DataFile Version 2.0
TS=330000. Made by PostProcessing (CC-BY-NC)
ASCII 
DATASET POLYDATA
POINTS 10 double
0.00296967 0.00075 0.0019127 
0.00202197 0.00075 0.00075 
0.00391737 0.00075 0.00075 
0.00471959 0.00075 0.00201745 
0.00552182 0.00075 0.00075 
0.00627186 0.00075 0.00204902 
0.0022196 0.00075 0.0032117 
0.00304669 0.00075 0.0044932 
0.00377189 0.00075 0.00318015 
0.00546893 0.00075 0.00331688 
VERTICES 10 20
1 0
1 1
1 2
1 3
1 4
1 5
1 6
1 7
1 8
1 9
POINT_DATA 10
VECTORS omega double 0 -22.185 0 
0 22.2444 0 
0 22.3551 0 
0 -22.4172 0 
0 22.4107 0 
0 -22.3485 0 
0 22.2738 0 
0 -24.7412 0 
0 22.3475 0 
0 21.7346 0 

