# vtk DataFile Version 2.0
TS=230000. Made by PostProcessing (CC-BY-NC)
ASCII 
DATASET POLYDATA
POINTS 10 double
0.00251968 0.00075 0.000751618 
0.00332288 0.00075 0.00201952 
0.00158901 0.00075 0.00193043 
0.00413268 0.00075 0.000750822 
0.00484467 0.00075 0.00207309 
0.00565273 0.00075 0.000750294 
0.00240394 0.00075 0.0032099 
0.00393048 0.00075 0.00339646 
0.00581807 0.00075 0.00322198 
0.00194607 0.00075 0.00464867 
VERTICES 10 20
1 0
1 1
1 2
1 3
1 4
1 5
1 6
1 7
1 8
1 9
POINT_DATA 10
VECTORS omega double 0 15.3568 0 
0 -20.5875 0 
0 -22.6601 0 
0 12.7628 0 
0 -16.4162 0 
0 14.9122 0 
0 20.4857 0 
0 18.0223 0 
0 30.3571 0 
0 -27.5967 0 

