LIGGGHTS (Version LIGGGHTS-PUBLIC 3.8.0, compiled 2018-12-06-14:14:30 by FGuillard, git commit unknown)

variable d equal 0.0015
variable peau equal  2*$d
variable peau equal  2*0.0015
variable rho equal 2500

atom_style     granular
boundary       p p p


newton          off
communicate     single vel yes
units          si
region         reg block 0 0.005 0 0.001 0 0.01  units box
create_box     2 reg
Created orthogonal box = (0 0 0) to (0.005 0.001 0.01)
  1 by 1 by 1 MPI processor grid

neighbor        ${peau} bin
neighbor        0.003 bin
#neigh_modify   every 1 check yes
neigh_modify    delay 0


pair_style      gran model hooke/stiffness tangential history tangential_damping on limitForce off absolute_damping on
pair_coeff      * *
fix             m1 all property/global kn peratomtypepair 2 8.1e5 8.1e5 8.1e5 8.1e5
fix             m2 all property/global kt peratomtypepair 2 8e4 8e4 8e4 8e4
fix             m3 all property/global gamman_abs peratomtypepair 2 0.1 0.1 0.1 0.1
fix             m4 all property/global gammat_abs peratomtypepair 2 0 0 0 0
fix             m5 all property/global coefficientFriction peratomtypepair 2 0.5 0.000001 0.000001 0.000001

timestep        0.000001

fix             floor all wall/gran model hooke/stiffness tangential history primitive type 1 zplane 0 store_force yes tangential_damping on limitForce off absolute_damping on
#fix             ceiling all wall/gran model hooke/stiffness tangential history primitive type 1 zplane 1 store_force yes tangential_damping on limitForce off absolute_damping on

create_atoms 1 single 0.00075 0.00075 0.00075
Created 1 atoms
create_atoms 1 single 0.00225 0.00075 0.00075
Created 1 atoms
create_atoms 1 single 0.00375 0.00075 0.00075
Created 1 atoms
create_atoms 1 single 0.00075 0.00075 0.00225
Created 1 atoms
create_atoms 1 single 0.00225 0.00075 0.00225
Created 1 atoms
create_atoms 1 single 0.00375 0.00075 0.00225
Created 1 atoms
create_atoms 1 single 0.00075 0.00075 0.00375
Created 1 atoms
create_atoms 1 single 0.00225 0.00075 0.00375
Created 1 atoms
create_atoms 1 single 0.00375 0.00075 0.00375
Created 1 atoms
create_atoms 1 single 0.00075 0.00075 0.00525
Created 1 atoms

set     type 1 diameter $d density ${rho}
set     type 1 diameter 0.0015 density ${rho}
set     type 1 diameter 0.0015 density 2500
  10 settings made for diameter
  10 settings made for density

#group   gp2 id 2
fix     1 all gravity 0.9254 vector 0.1 0 -0.92
#fix     2 gp2 freeze



fix             integr all nve/sphere
#fix 2 frozen freeze

dump dumping all custom 10000 dump.myforce id x y z omegax omegay omegaz
#dump dumping2 all atom/vtk 100 dump.atom-*.vtk


thermo_style custom step
thermo 10000
run 1000000
Setting up run at Thu Dec 13 13:22:33 2018

Memory usage per processor = 8.94178 Mbytes
    Step 
       0 
   10000 
   20000 
   30000 
   40000 
   50000 
WARNING: Forced restart written (../output.cpp:427)
   52007 
Loop time of 1.11319 on 1 procs for 1000000 steps with 10 atoms, finish time Thu Dec 13 13:22:34 2018


Pair  time (%) = 0.67509 (60.6443)
Neigh time (%) = 4.81606e-05 (0.00432634)
Comm  time (%) = 0.360842 (32.4149)
Outpt time (%) = 0.000655651 (0.0588981)
Other time (%) = 0.07656 (6.8775)

Nlocal:    10 ave 10 max 10 min
Histogram: 1 0 0 0 0 0 0 0 0 0
Nghost:    560 ave 560 max 560 min
Histogram: 1 0 0 0 0 0 0 0 0 0
Neighs:    935 ave 935 max 935 min
Histogram: 1 0 0 0 0 0 0 0 0 0

Total # of neighbors = 935
Ave neighs/atom = 93.5
Neighbor list builds = 1
Dangerous builds = 0
