# vtk DataFile Version 2.0
Texture for ND DEM
ASCII
DATASET STRUCTURED_POINTS
DIMENSIONS 20 20 20
ORIGIN 0.0785398 0.0785398 0.15708
SPACING 0.15708 0.15708 0.314159

POINT_DATA 8000
COLOR_SCALARS Color 3
0 0 0
0.0117188 0.00390625 0.00390625
0.0273438 0.0078125 0.0078125
0.0390625 0.0078125 0.0117188
0.0429688 0.0117188 0.015625
0.03125 0.015625 0.0195312
0.00390625 0.015625 0.0195312
0.0273438 0.015625 0.0234375
0.0585938 0.0195312 0.0234375
0.0742188 0.0195312 0.0234375
0.0742188 0.0195312 0.0234375
0.0585938 0.0195312 0.0234375
0.0273438 0.015625 0.0234375
0.00390625 0.015625 0.0195312
0.03125 0.015625 0.0195312
0.0429688 0.0117188 0.015625
0.0390625 0.0078125 0.0117188
0.0273438 0.0078125 0.0078125
0.0117188 0.00390625 0.00390625
0 0 0
0.00390625 0.0117188 0.00390625
0.0351562 0.0351562 0.015625
0.0820312 0.0585938 0.0273438
0.121094 0.078125 0.0390625
0.128906 0.0976562 0.046875
0.09375 0.117188 0.0546875
0.015625 0.128906 0.0625
0.0820312 0.140625 0.0664062
0.171875 0.148438 0.0703125
0.226562 0.152344 0.0703125
0.226562 0.152344 0.0703125
0.171875 0.148438 0.0703125
0.0820312 0.140625 0.0664062
0.015625 0.128906 0.0625
0.09375 0.117188 0.0546875
0.128906 0.0976562 0.046875
0.121094 0.078125 0.0390625
0.0820312 0.0585938 0.0273438
0.0351562 0.0351562 0.015625
0.00390625 0.0117188 0.00390625
0.0078125 0.0273438 0.0078125
0.0585938 0.0820312 0.0273438
0.136719 0.136719 0.046875
0.199219 0.183594 0.0625
0.210938 0.230469 0.078125
0.152344 0.269531 0.0898438
0.0273438 0.300781 0.101562
0.136719 0.328125 0.109375
0.28125 0.34375 0.113281
0.371094 0.351562 0.117188
0.371094 0.351562 0.117188
0.28125 0.34375 0.113281
0.136719 0.328125 0.109375
0.0273438 0.300781 0.101562
0.152344 0.269531 0.0898438
0.210938 0.230469 0.078125
0.199219 0.183594 0.0625
0.136719 0.136719 0.046875
0.0585938 0.0820312 0.0273438
0.0078125 0.0273438 0.0078125
0.0078125 0.0390625 0.0117188
0.078125 0.121094 0.0390625
0.183594 0.199219 0.0625
0.273438 0.273438 0.0859375
0.289062 0.339844 0.105469
0.207031 0.394531 0.121094
0.0351562 0.445312 0.136719
0.183594 0.480469 0.148438
0.386719 0.507812 0.15625
0.507812 0.519531 0.160156
0.507812 0.519531 0.160156
0.386719 0.507812 0.15625
0.183594 0.480469 0.148438
0.0351562 0.445312 0.136719
0.207031 0.394531 0.121094
0.289062 0.339844 0.105469
0.273438 0.273438 0.0859375
0.183594 0.199219 0.0625
0.078125 0.121094 0.0390625
0.0078125 0.0390625 0.0117188
0.0117188 0.0429688 0.015625
0.0976562 0.128906 0.046875
0.230469 0.210938 0.078125
0.339844 0.289062 0.105469
0.359375 0.359375 0.128906
0.257812 0.421875 0.152344
0.0429688 0.472656 0.171875
0.230469 0.511719 0.183594
0.480469 0.539062 0.195312
0.628906 0.550781 0.199219
0.628906 0.550781 0.199219
0.480469 0.539062 0.195312
0.230469 0.511719 0.183594
0.0429688 0.472656 0.171875
0.257812 0.421875 0.152344
0.359375 0.359375 0.128906
0.339844 0.289062 0.105469
0.230469 0.210938 0.078125
0.0976562 0.128906 0.046875
0.0117188 0.0429688 0.015625
0.015625 0.03125 0.0195312
0.117188 0.09375 0.0546875
0.269531 0.152344 0.0898438
0.394531 0.207031 0.121094
0.421875 0.257812 0.152344
0.300781 0.300781 0.179688
0.0507812 0.339844 0.199219
0.269531 0.367188 0.21875
0.5625 0.386719 0.226562
0.738281 0.394531 0.234375
0.738281 0.394531 0.234375
0.5625 0.386719 0.226562
0.269531 0.367188 0.21875
0.0507812 0.339844 0.199219
0.300781 0.300781 0.179688
0.421875 0.257812 0.152344
0.394531 0.207031 0.121094
0.269531 0.152344 0.0898438
0.117188 0.09375 0.0546875
0.015625 0.03125 0.0195312
0.015625 0.00390625 0.0195312
0.128906 0.015625 0.0625
0.300781 0.0273438 0.101562
0.445312 0.0351562 0.136719
0.472656 0.0429688 0.171875
0.339844 0.0507812 0.199219
0.0585938 0.0585938 0.226562
0.300781 0.0625 0.242188
0.628906 0.0664062 0.257812
0.828125 0.0664062 0.261719
0.828125 0.0664062 0.261719
0.628906 0.0664062 0.257812
0.300781 0.0625 0.242188
0.0585938 0.0585938 0.226562
0.339844 0.0507812 0.199219
0.472656 0.0429688 0.171875
0.445312 0.0351562 0.136719
0.300781 0.0273438 0.101562
0.128906 0.015625 0.0625
0.015625 0.00390625 0.0195312
0.015625 0.0273438 0.0234375
0.140625 0.0820312 0.0664062
0.328125 0.136719 0.109375
0.480469 0.183594 0.148438
0.511719 0.230469 0.183594
0.367188 0.269531 0.21875
0.0625 0.300781 0.242188
0.328125 0.328125 0.265625
0.683594 0.34375 0.277344
0.894531 0.351562 0.285156
0.894531 0.351562 0.285156
0.683594 0.34375 0.277344
0.328125 0.328125 0.265625
0.0625 0.300781 0.242188
0.367188 0.269531 0.21875
0.511719 0.230469 0.183594
0.480469 0.183594 0.148438
0.328125 0.136719 0.109375
0.140625 0.0820312 0.0664062
0.015625 0.0273438 0.0234375
0.0195312 0.0585938 0.0234375
0.148438 0.171875 0.0703125
0.34375 0.28125 0.113281
0.507812 0.386719 0.15625
0.539062 0.480469 0.195312
0.386719 0.5625 0.226562
0.0664062 0.628906 0.257812
0.34375 0.683594 0.277344
0.71875 0.71875 0.292969
0.941406 0.738281 0.300781
0.941406 0.738281 0.300781
0.71875 0.71875 0.292969
0.34375 0.683594 0.277344
0.0664062 0.628906 0.257812
0.386719 0.5625 0.226562
0.539062 0.480469 0.195312
0.507812 0.386719 0.15625
0.34375 0.28125 0.113281
0.148438 0.171875 0.0703125
0.0195312 0.0585938 0.0234375
0.0195312 0.0742188 0.0234375
0.152344 0.226562 0.0703125
0.351562 0.371094 0.117188
0.519531 0.507812 0.160156
0.550781 0.628906 0.199219
0.394531 0.738281 0.234375
0.0664062 0.828125 0.261719
0.351562 0.894531 0.285156
0.738281 0.941406 0.300781
0.964844 0.964844 0.308594
0.964844 0.964844 0.308594
0.738281 0.941406 0.300781
0.351562 0.894531 0.285156
0.0664062 0.828125 0.261719
0.394531 0.738281 0.234375
0.550781 0.628906 0.199219
0.519531 0.507812 0.160156
0.351562 0.371094 0.117188
0.152344 0.226562 0.0703125
0.0195312 0.0742188 0.0234375
0.0195312 0.0742188 0.0234375
0.152344 0.226562 0.0703125
0.351562 0.371094 0.117188
0.519531 0.507812 0.160156
0.550781 0.628906 0.199219
0.394531 0.738281 0.234375
0.0664062 0.828125 0.261719
0.351562 0.894531 0.285156
0.738281 0.941406 0.300781
0.964844 0.964844 0.308594
0.964844 0.964844 0.308594
0.738281 0.941406 0.300781
0.351562 0.894531 0.285156
0.0664062 0.828125 0.261719
0.394531 0.738281 0.234375
0.550781 0.628906 0.199219
0.519531 0.507812 0.160156
0.351562 0.371094 0.117188
0.152344 0.226562 0.0703125
0.0195312 0.0742188 0.0234375
0.0195312 0.0585938 0.0234375
0.148438 0.171875 0.0703125
0.34375 0.28125 0.113281
0.507812 0.386719 0.15625
0.539062 0.480469 0.195312
0.386719 0.5625 0.226562
0.0664062 0.628906 0.257812
0.34375 0.683594 0.277344
0.71875 0.71875 0.292969
0.941406 0.738281 0.300781
0.941406 0.738281 0.300781
0.71875 0.71875 0.292969
0.34375 0.683594 0.277344
0.0664062 0.628906 0.257812
0.386719 0.5625 0.226562
0.539062 0.480469 0.195312
0.507812 0.386719 0.15625
0.34375 0.28125 0.113281
0.148438 0.171875 0.0703125
0.0195312 0.0585938 0.0234375
0.015625 0.0273438 0.0234375
0.140625 0.0820312 0.0664062
0.328125 0.136719 0.109375
0.480469 0.183594 0.148438
0.511719 0.230469 0.183594
0.367188 0.269531 0.21875
0.0625 0.300781 0.242188
0.328125 0.328125 0.265625
0.683594 0.34375 0.277344
0.894531 0.351562 0.285156
0.894531 0.351562 0.285156
0.683594 0.34375 0.277344
0.328125 0.328125 0.265625
0.0625 0.300781 0.242188
0.367188 0.269531 0.21875
0.511719 0.230469 0.183594
0.480469 0.183594 0.148438
0.328125 0.136719 0.109375
0.140625 0.0820312 0.0664062
0.015625 0.0273438 0.0234375
0.015625 0.00390625 0.0195312
0.128906 0.015625 0.0625
0.300781 0.0273438 0.101562
0.445312 0.0351562 0.136719
0.472656 0.0429688 0.171875
0.339844 0.0507812 0.199219
0.0585938 0.0585938 0.226562
0.300781 0.0625 0.242188
0.628906 0.0664062 0.257812
0.828125 0.0664062 0.261719
0.828125 0.0664062 0.261719
0.628906 0.0664062 0.257812
0.300781 0.0625 0.242188
0.0585938 0.0585938 0.226562
0.339844 0.0507812 0.199219
0.472656 0.0429688 0.171875
0.445312 0.0351562 0.136719
0.300781 0.0273438 0.101562
0.128906 0.015625 0.0625
0.015625 0.00390625 0.0195312
0.015625 0.03125 0.0195312
0.117188 0.09375 0.0546875
0.269531 0.152344 0.0898438
0.394531 0.207031 0.121094
0.421875 0.257812 0.152344
0.300781 0.300781 0.179688
0.0507812 0.339844 0.199219
0.269531 0.367188 0.21875
0.5625 0.386719 0.226562
0.738281 0.394531 0.234375
0.738281 0.394531 0.234375
0.5625 0.386719 0.226562
0.269531 0.367188 0.21875
0.0507812 0.339844 0.199219
0.300781 0.300781 0.179688
0.421875 0.257812 0.152344
0.394531 0.207031 0.121094
0.269531 0.152344 0.0898438
0.117188 0.09375 0.0546875
0.015625 0.03125 0.0195312
0.0117188 0.0429688 0.015625
0.0976562 0.128906 0.046875
0.230469 0.210938 0.078125
0.339844 0.289062 0.105469
0.359375 0.359375 0.128906
0.257812 0.421875 0.152344
0.0429688 0.472656 0.171875
0.230469 0.511719 0.183594
0.480469 0.539062 0.195312
0.628906 0.550781 0.199219
0.628906 0.550781 0.199219
0.480469 0.539062 0.195312
0.230469 0.511719 0.183594
0.0429688 0.472656 0.171875
0.257812 0.421875 0.152344
0.359375 0.359375 0.128906
0.339844 0.289062 0.105469
0.230469 0.210938 0.078125
0.0976562 0.128906 0.046875
0.0117188 0.0429688 0.015625
0.0078125 0.0390625 0.0117188
0.078125 0.121094 0.0390625
0.183594 0.199219 0.0625
0.273438 0.273438 0.0859375
0.289062 0.339844 0.105469
0.207031 0.394531 0.121094
0.0351562 0.445312 0.136719
0.183594 0.480469 0.148438
0.386719 0.507812 0.15625
0.507812 0.519531 0.160156
0.507812 0.519531 0.160156
0.386719 0.507812 0.15625
0.183594 0.480469 0.148438
0.0351562 0.445312 0.136719
0.207031 0.394531 0.121094
0.289062 0.339844 0.105469
0.273438 0.273438 0.0859375
0.183594 0.199219 0.0625
0.078125 0.121094 0.0390625
0.0078125 0.0390625 0.0117188
0.0078125 0.0273438 0.0078125
0.0585938 0.0820312 0.0273438
0.136719 0.136719 0.046875
0.199219 0.183594 0.0625
0.210938 0.230469 0.078125
0.152344 0.269531 0.0898438
0.0273438 0.300781 0.101562
0.136719 0.328125 0.109375
0.28125 0.34375 0.113281
0.371094 0.351562 0.117188
0.371094 0.351562 0.117188
0.28125 0.34375 0.113281
0.136719 0.328125 0.109375
0.0273438 0.300781 0.101562
0.152344 0.269531 0.0898438
0.210938 0.230469 0.078125
0.199219 0.183594 0.0625
0.136719 0.136719 0.046875
0.0585938 0.0820312 0.0273438
0.0078125 0.0273438 0.0078125
0.00390625 0.0117188 0.00390625
0.0351562 0.0351562 0.015625
0.0820312 0.0585938 0.0273438
0.121094 0.078125 0.0390625
0.128906 0.0976562 0.046875
0.09375 0.117188 0.0546875
0.015625 0.128906 0.0625
0.0820312 0.140625 0.0664062
0.171875 0.148438 0.0703125
0.226562 0.152344 0.0703125
0.226562 0.152344 0.0703125
0.171875 0.148438 0.0703125
0.0820312 0.140625 0.0664062
0.015625 0.128906 0.0625
0.09375 0.117188 0.0546875
0.128906 0.0976562 0.046875
0.121094 0.078125 0.0390625
0.0820312 0.0585938 0.0273438
0.0351562 0.0351562 0.015625
0.00390625 0.0117188 0.00390625
0 0 0
0.0117188 0.00390625 0.00390625
0.0273438 0.0078125 0.0078125
0.0390625 0.0078125 0.0117188
0.0429688 0.0117188 0.015625
0.03125 0.015625 0.0195312
0.00390625 0.015625 0.0195312
0.0273438 0.015625 0.0234375
0.0585938 0.0195312 0.0234375
0.0742188 0.0195312 0.0234375
0.0742188 0.0195312 0.0234375
0.0585938 0.0195312 0.0234375
0.0273438 0.015625 0.0234375
0.00390625 0.015625 0.0195312
0.03125 0.015625 0.0195312
0.0429688 0.0117188 0.015625
0.0390625 0.0078125 0.0117188
0.0273438 0.0078125 0.0078125
0.0117188 0.00390625 0.00390625
0 0 0
0 0 0.00390625
0.0117188 0.00390625 0.015625
0.0273438 0.0078125 0.0234375
0.0390625 0.0078125 0.03125
0.0429688 0.0117188 0.0429688
0.03125 0.015625 0.046875
0.00390625 0.015625 0.0546875
0.0273438 0.015625 0.0585938
0.0585938 0.0195312 0.0625
0.0742188 0.0195312 0.0625
0.0742188 0.0195312 0.0625
0.0585938 0.0195312 0.0625
0.0273438 0.015625 0.0585938
0.00390625 0.015625 0.0546875
0.03125 0.015625 0.046875
0.0429688 0.0117188 0.0429688
0.0390625 0.0078125 0.03125
0.0273438 0.0078125 0.0234375
0.0117188 0.00390625 0.015625
0 0 0.00390625
0.00390625 0.0117188 0.015625
0.0351562 0.0351562 0.0429688
0.0820312 0.0585938 0.0742188
0.121094 0.078125 0.0976562
0.128906 0.0976562 0.121094
0.09375 0.117188 0.144531
0.015625 0.128906 0.160156
0.0820312 0.140625 0.175781
0.171875 0.148438 0.183594
0.226562 0.152344 0.1875
0.226562 0.152344 0.1875
0.171875 0.148438 0.183594
0.0820312 0.140625 0.175781
0.015625 0.128906 0.160156
0.09375 0.117188 0.144531
0.128906 0.0976562 0.121094
0.121094 0.078125 0.0976562
0.0820312 0.0585938 0.0742188
0.0351562 0.0351562 0.0429688
0.00390625 0.0117188 0.015625
0.0078125 0.0273438 0.0234375
0.0585938 0.0820312 0.0742188
0.136719 0.136719 0.117188
0.199219 0.183594 0.160156
0.210938 0.230469 0.199219
0.152344 0.269531 0.234375
0.0273438 0.300781 0.265625
0.136719 0.328125 0.285156
0.28125 0.34375 0.300781
0.371094 0.351562 0.308594
0.371094 0.351562 0.308594
0.28125 0.34375 0.300781
0.136719 0.328125 0.285156
0.0273438 0.300781 0.265625
0.152344 0.269531 0.234375
0.210938 0.230469 0.199219
0.199219 0.183594 0.160156
0.136719 0.136719 0.117188
0.0585938 0.0820312 0.0742188
0.0078125 0.0273438 0.0234375
0.0078125 0.0390625 0.03125
0.078125 0.121094 0.0976562
0.183594 0.199219 0.160156
0.273438 0.273438 0.222656
0.289062 0.339844 0.273438
0.207031 0.394531 0.320312
0.0351562 0.445312 0.359375
0.183594 0.480469 0.390625
0.386719 0.507812 0.410156
0.507812 0.519531 0.421875
0.507812 0.519531 0.421875
0.386719 0.507812 0.410156
0.183594 0.480469 0.390625
0.0351562 0.445312 0.359375
0.207031 0.394531 0.320312
0.289062 0.339844 0.273438
0.273438 0.273438 0.222656
0.183594 0.199219 0.160156
0.078125 0.121094 0.0976562
0.0078125 0.0390625 0.03125
0.0117188 0.0429688 0.0429688
0.0976562 0.128906 0.121094
0.230469 0.210938 0.199219
0.339844 0.289062 0.273438
0.359375 0.359375 0.339844
0.257812 0.421875 0.398438
0.0429688 0.472656 0.449219
0.230469 0.511719 0.484375
0.480469 0.539062 0.511719
0.628906 0.550781 0.523438
0.628906 0.550781 0.523438
0.480469 0.539062 0.511719
0.230469 0.511719 0.484375
0.0429688 0.472656 0.449219
0.257812 0.421875 0.398438
0.359375 0.359375 0.339844
0.339844 0.289062 0.273438
0.230469 0.210938 0.199219
0.0976562 0.128906 0.121094
0.0117188 0.0429688 0.0429688
0.015625 0.03125 0.046875
0.117188 0.09375 0.144531
0.269531 0.152344 0.234375
0.394531 0.207031 0.320312
0.421875 0.257812 0.398438
0.300781 0.300781 0.46875
0.0507812 0.339844 0.523438
0.269531 0.367188 0.566406
0.5625 0.386719 0.597656
0.738281 0.394531 0.613281
0.738281 0.394531 0.613281
0.5625 0.386719 0.597656
0.269531 0.367188 0.566406
0.0507812 0.339844 0.523438
0.300781 0.300781 0.46875
0.421875 0.257812 0.398438
0.394531 0.207031 0.320312
0.269531 0.152344 0.234375
0.117188 0.09375 0.144531
0.015625 0.03125 0.046875
0.015625 0.00390625 0.0546875
0.128906 0.015625 0.160156
0.300781 0.0273438 0.265625
0.445312 0.0351562 0.359375
0.472656 0.0429688 0.449219
0.339844 0.0507812 0.523438
0.0585938 0.0585938 0.589844
0.300781 0.0625 0.636719
0.628906 0.0664062 0.671875
0.828125 0.0664062 0.6875
0.828125 0.0664062 0.6875
0.628906 0.0664062 0.671875
0.300781 0.0625 0.636719
0.0585938 0.0585938 0.589844
0.339844 0.0507812 0.523438
0.472656 0.0429688 0.449219
0.445312 0.0351562 0.359375
0.300781 0.0273438 0.265625
0.128906 0.015625 0.160156
0.015625 0.00390625 0.0546875
0.015625 0.0273438 0.0585938
0.140625 0.0820312 0.175781
0.328125 0.136719 0.285156
0.480469 0.183594 0.390625
0.511719 0.230469 0.484375
0.367188 0.269531 0.566406
0.0625 0.300781 0.636719
0.328125 0.328125 0.691406
0.683594 0.34375 0.726562
0.894531 0.351562 0.746094
0.894531 0.351562 0.746094
0.683594 0.34375 0.726562
0.328125 0.328125 0.691406
0.0625 0.300781 0.636719
0.367188 0.269531 0.566406
0.511719 0.230469 0.484375
0.480469 0.183594 0.390625
0.328125 0.136719 0.285156
0.140625 0.0820312 0.175781
0.015625 0.0273438 0.0585938
0.0195312 0.0585938 0.0625
0.148438 0.171875 0.183594
0.34375 0.28125 0.300781
0.507812 0.386719 0.410156
0.539062 0.480469 0.511719
0.386719 0.5625 0.597656
0.0664062 0.628906 0.671875
0.34375 0.683594 0.726562
0.71875 0.71875 0.765625
0.941406 0.738281 0.785156
0.941406 0.738281 0.785156
0.71875 0.71875 0.765625
0.34375 0.683594 0.726562
0.0664062 0.628906 0.671875
0.386719 0.5625 0.597656
0.539062 0.480469 0.511719
0.507812 0.386719 0.410156
0.34375 0.28125 0.300781
0.148438 0.171875 0.183594
0.0195312 0.0585938 0.0625
0.0195312 0.0742188 0.0625
0.152344 0.226562 0.1875
0.351562 0.371094 0.308594
0.519531 0.507812 0.421875
0.550781 0.628906 0.523438
0.394531 0.738281 0.613281
0.0664062 0.828125 0.6875
0.351562 0.894531 0.746094
0.738281 0.941406 0.785156
0.964844 0.964844 0.804688
0.964844 0.964844 0.804688
0.738281 0.941406 0.785156
0.351562 0.894531 0.746094
0.0664062 0.828125 0.6875
0.394531 0.738281 0.613281
0.550781 0.628906 0.523438
0.519531 0.507812 0.421875
0.351562 0.371094 0.308594
0.152344 0.226562 0.1875
0.0195312 0.0742188 0.0625
0.0195312 0.0742188 0.0625
0.152344 0.226562 0.1875
0.351562 0.371094 0.308594
0.519531 0.507812 0.421875
0.550781 0.628906 0.523438
0.394531 0.738281 0.613281
0.0664062 0.828125 0.6875
0.351562 0.894531 0.746094
0.738281 0.941406 0.785156
0.964844 0.964844 0.804688
0.964844 0.964844 0.804688
0.738281 0.941406 0.785156
0.351562 0.894531 0.746094
0.0664062 0.828125 0.6875
0.394531 0.738281 0.613281
0.550781 0.628906 0.523438
0.519531 0.507812 0.421875
0.351562 0.371094 0.308594
0.152344 0.226562 0.1875
0.0195312 0.0742188 0.0625
0.0195312 0.0585938 0.0625
0.148438 0.171875 0.183594
0.34375 0.28125 0.300781
0.507812 0.386719 0.410156
0.539062 0.480469 0.511719
0.386719 0.5625 0.597656
0.0664062 0.628906 0.671875
0.34375 0.683594 0.726562
0.71875 0.71875 0.765625
0.941406 0.738281 0.785156
0.941406 0.738281 0.785156
0.71875 0.71875 0.765625
0.34375 0.683594 0.726562
0.0664062 0.628906 0.671875
0.386719 0.5625 0.597656
0.539062 0.480469 0.511719
0.507812 0.386719 0.410156
0.34375 0.28125 0.300781
0.148438 0.171875 0.183594
0.0195312 0.0585938 0.0625
0.015625 0.0273438 0.0585938
0.140625 0.0820312 0.175781
0.328125 0.136719 0.285156
0.480469 0.183594 0.390625
0.511719 0.230469 0.484375
0.367188 0.269531 0.566406
0.0625 0.300781 0.636719
0.328125 0.328125 0.691406
0.683594 0.34375 0.726562
0.894531 0.351562 0.746094
0.894531 0.351562 0.746094
0.683594 0.34375 0.726562
0.328125 0.328125 0.691406
0.0625 0.300781 0.636719
0.367188 0.269531 0.566406
0.511719 0.230469 0.484375
0.480469 0.183594 0.390625
0.328125 0.136719 0.285156
0.140625 0.0820312 0.175781
0.015625 0.0273438 0.0585938
0.015625 0.00390625 0.0546875
0.128906 0.015625 0.160156
0.300781 0.0273438 0.265625
0.445312 0.0351562 0.359375
0.472656 0.0429688 0.449219
0.339844 0.0507812 0.523438
0.0585938 0.0585938 0.589844
0.300781 0.0625 0.636719
0.628906 0.0664062 0.671875
0.828125 0.0664062 0.6875
0.828125 0.0664062 0.6875
0.628906 0.0664062 0.671875
0.300781 0.0625 0.636719
0.0585938 0.0585938 0.589844
0.339844 0.0507812 0.523438
0.472656 0.0429688 0.449219
0.445312 0.0351562 0.359375
0.300781 0.0273438 0.265625
0.128906 0.015625 0.160156
0.015625 0.00390625 0.0546875
0.015625 0.03125 0.046875
0.117188 0.09375 0.144531
0.269531 0.152344 0.234375
0.394531 0.207031 0.320312
0.421875 0.257812 0.398438
0.300781 0.300781 0.46875
0.0507812 0.339844 0.523438
0.269531 0.367188 0.566406
0.5625 0.386719 0.597656
0.738281 0.394531 0.613281
0.738281 0.394531 0.613281
0.5625 0.386719 0.597656
0.269531 0.367188 0.566406
0.0507812 0.339844 0.523438
0.300781 0.300781 0.46875
0.421875 0.257812 0.398438
0.394531 0.207031 0.320312
0.269531 0.152344 0.234375
0.117188 0.09375 0.144531
0.015625 0.03125 0.046875
0.0117188 0.0429688 0.0429688
0.0976562 0.128906 0.121094
0.230469 0.210938 0.199219
0.339844 0.289062 0.273438
0.359375 0.359375 0.339844
0.257812 0.421875 0.398438
0.0429688 0.472656 0.449219
0.230469 0.511719 0.484375
0.480469 0.539062 0.511719
0.628906 0.550781 0.523438
0.628906 0.550781 0.523438
0.480469 0.539062 0.511719
0.230469 0.511719 0.484375
0.0429688 0.472656 0.449219
0.257812 0.421875 0.398438
0.359375 0.359375 0.339844
0.339844 0.289062 0.273438
0.230469 0.210938 0.199219
0.0976562 0.128906 0.121094
0.0117188 0.0429688 0.0429688
0.0078125 0.0390625 0.03125
0.078125 0.121094 0.0976562
0.183594 0.199219 0.160156
0.273438 0.273438 0.222656
0.289062 0.339844 0.273438
0.207031 0.394531 0.320312
0.0351562 0.445312 0.359375
0.183594 0.480469 0.390625
0.386719 0.507812 0.410156
0.507812 0.519531 0.421875
0.507812 0.519531 0.421875
0.386719 0.507812 0.410156
0.183594 0.480469 0.390625
0.0351562 0.445312 0.359375
0.207031 0.394531 0.320312
0.289062 0.339844 0.273438
0.273438 0.273438 0.222656
0.183594 0.199219 0.160156
0.078125 0.121094 0.0976562
0.0078125 0.0390625 0.03125
0.0078125 0.0273438 0.0234375
0.0585938 0.0820312 0.0742188
0.136719 0.136719 0.117188
0.199219 0.183594 0.160156
0.210938 0.230469 0.199219
0.152344 0.269531 0.234375
0.0273438 0.300781 0.265625
0.136719 0.328125 0.285156
0.28125 0.34375 0.300781
0.371094 0.351562 0.308594
0.371094 0.351562 0.308594
0.28125 0.34375 0.300781
0.136719 0.328125 0.285156
0.0273438 0.300781 0.265625
0.152344 0.269531 0.234375
0.210938 0.230469 0.199219
0.199219 0.183594 0.160156
0.136719 0.136719 0.117188
0.0585938 0.0820312 0.0742188
0.0078125 0.0273438 0.0234375
0.00390625 0.0117188 0.015625
0.0351562 0.0351562 0.0429688
0.0820312 0.0585938 0.0742188
0.121094 0.078125 0.0976562
0.128906 0.0976562 0.121094
0.09375 0.117188 0.144531
0.015625 0.128906 0.160156
0.0820312 0.140625 0.175781
0.171875 0.148438 0.183594
0.226562 0.152344 0.1875
0.226562 0.152344 0.1875
0.171875 0.148438 0.183594
0.0820312 0.140625 0.175781
0.015625 0.128906 0.160156
0.09375 0.117188 0.144531
0.128906 0.0976562 0.121094
0.121094 0.078125 0.0976562
0.0820312 0.0585938 0.0742188
0.0351562 0.0351562 0.0429688
0.00390625 0.0117188 0.015625
0 0 0.00390625
0.0117188 0.00390625 0.015625
0.0273438 0.0078125 0.0234375
0.0390625 0.0078125 0.03125
0.0429688 0.0117188 0.0429688
0.03125 0.015625 0.046875
0.00390625 0.015625 0.0546875
0.0273438 0.015625 0.0585938
0.0585938 0.0195312 0.0625
0.0742188 0.0195312 0.0625
0.0742188 0.0195312 0.0625
0.0585938 0.0195312 0.0625
0.0273438 0.015625 0.0585938
0.00390625 0.015625 0.0546875
0.03125 0.015625 0.046875
0.0429688 0.0117188 0.0429688
0.0390625 0.0078125 0.03125
0.0273438 0.0078125 0.0234375
0.0117188 0.00390625 0.015625
0 0 0.00390625
0 0 0.0078125
0.0117188 0.00390625 0.0195312
0.0273438 0.0078125 0.03125
0.0390625 0.0078125 0.0390625
0.0429688 0.0117188 0.0507812
0.03125 0.015625 0.0585938
0.00390625 0.015625 0.0664062
0.0273438 0.015625 0.0742188
0.0585938 0.0195312 0.078125
0.0742188 0.0195312 0.078125
0.0742188 0.0195312 0.078125
0.0585938 0.0195312 0.078125
0.0273438 0.015625 0.0742188
0.00390625 0.015625 0.0664062
0.03125 0.015625 0.0585938
0.0429688 0.0117188 0.0507812
0.0390625 0.0078125 0.0390625
0.0273438 0.0078125 0.03125
0.0117188 0.00390625 0.0195312
0 0 0.0078125
0.00390625 0.0117188 0.0195312
0.0351562 0.0351562 0.0546875
0.0820312 0.0585938 0.0898438
0.121094 0.078125 0.121094
0.128906 0.0976562 0.152344
0.09375 0.117188 0.175781
0.015625 0.128906 0.199219
0.0820312 0.140625 0.214844
0.171875 0.148438 0.226562
0.226562 0.152344 0.234375
0.226562 0.152344 0.234375
0.171875 0.148438 0.226562
0.0820312 0.140625 0.214844
0.015625 0.128906 0.199219
0.09375 0.117188 0.175781
0.128906 0.0976562 0.152344
0.121094 0.078125 0.121094
0.0820312 0.0585938 0.0898438
0.0351562 0.0351562 0.0546875
0.00390625 0.0117188 0.0195312
0.0078125 0.0273438 0.03125
0.0585938 0.0820312 0.0898438
0.136719 0.136719 0.144531
0.199219 0.183594 0.199219
0.210938 0.230469 0.25
0.152344 0.269531 0.289062
0.0273438 0.300781 0.328125
0.136719 0.328125 0.355469
0.28125 0.34375 0.371094
0.371094 0.351562 0.382812
0.371094 0.351562 0.382812
0.28125 0.34375 0.371094
0.136719 0.328125 0.355469
0.0273438 0.300781 0.328125
0.152344 0.269531 0.289062
0.210938 0.230469 0.25
0.199219 0.183594 0.199219
0.136719 0.136719 0.144531
0.0585938 0.0820312 0.0898438
0.0078125 0.0273438 0.03125
0.0078125 0.0390625 0.0390625
0.078125 0.121094 0.121094
0.183594 0.199219 0.199219
0.273438 0.273438 0.273438
0.289062 0.339844 0.339844
0.207031 0.394531 0.398438
0.0351562 0.445312 0.445312
0.183594 0.480469 0.484375
0.386719 0.507812 0.507812
0.507812 0.519531 0.519531
0.507812 0.519531 0.519531
0.386719 0.507812 0.507812
0.183594 0.480469 0.484375
0.0351562 0.445312 0.445312
0.207031 0.394531 0.398438
0.289062 0.339844 0.339844
0.273438 0.273438 0.273438
0.183594 0.199219 0.199219
0.078125 0.121094 0.121094
0.0078125 0.0390625 0.0390625
0.0117188 0.0429688 0.0507812
0.0976562 0.128906 0.152344
0.230469 0.210938 0.25
0.339844 0.289062 0.339844
0.359375 0.359375 0.421875
0.257812 0.421875 0.492188
0.0429688 0.472656 0.554688
0.230469 0.511719 0.601562
0.480469 0.539062 0.632812
0.628906 0.550781 0.648438
0.628906 0.550781 0.648438
0.480469 0.539062 0.632812
0.230469 0.511719 0.601562
0.0429688 0.472656 0.554688
0.257812 0.421875 0.492188
0.359375 0.359375 0.421875
0.339844 0.289062 0.339844
0.230469 0.210938 0.25
0.0976562 0.128906 0.152344
0.0117188 0.0429688 0.0507812
0.015625 0.03125 0.0585938
0.117188 0.09375 0.175781
0.269531 0.152344 0.289062
0.394531 0.207031 0.398438
0.421875 0.257812 0.492188
0.300781 0.300781 0.578125
0.0507812 0.339844 0.648438
0.269531 0.367188 0.703125
0.5625 0.386719 0.738281
0.738281 0.394531 0.757812
0.738281 0.394531 0.757812
0.5625 0.386719 0.738281
0.269531 0.367188 0.703125
0.0507812 0.339844 0.648438
0.300781 0.300781 0.578125
0.421875 0.257812 0.492188
0.394531 0.207031 0.398438
0.269531 0.152344 0.289062
0.117188 0.09375 0.175781
0.015625 0.03125 0.0585938
0.015625 0.00390625 0.0664062
0.128906 0.015625 0.199219
0.300781 0.0273438 0.328125
0.445312 0.0351562 0.445312
0.472656 0.0429688 0.554688
0.339844 0.0507812 0.648438
0.0585938 0.0585938 0.726562
0.300781 0.0625 0.789062
0.628906 0.0664062 0.828125
0.828125 0.0664062 0.851562
0.828125 0.0664062 0.851562
0.628906 0.0664062 0.828125
0.300781 0.0625 0.789062
0.0585938 0.0585938 0.726562
0.339844 0.0507812 0.648438
0.472656 0.0429688 0.554688
0.445312 0.0351562 0.445312
0.300781 0.0273438 0.328125
0.128906 0.015625 0.199219
0.015625 0.00390625 0.0664062
0.015625 0.0273438 0.0742188
0.140625 0.0820312 0.214844
0.328125 0.136719 0.355469
0.480469 0.183594 0.484375
0.511719 0.230469 0.601562
0.367188 0.269531 0.703125
0.0625 0.300781 0.789062
0.328125 0.328125 0.855469
0.683594 0.34375 0.898438
0.894531 0.351562 0.921875
0.894531 0.351562 0.921875
0.683594 0.34375 0.898438
0.328125 0.328125 0.855469
0.0625 0.300781 0.789062
0.367188 0.269531 0.703125
0.511719 0.230469 0.601562
0.480469 0.183594 0.484375
0.328125 0.136719 0.355469
0.140625 0.0820312 0.214844
0.015625 0.0273438 0.0742188
0.0195312 0.0585938 0.078125
0.148438 0.171875 0.226562
0.34375 0.28125 0.371094
0.507812 0.386719 0.507812
0.539062 0.480469 0.632812
0.386719 0.5625 0.738281
0.0664062 0.628906 0.828125
0.34375 0.683594 0.898438
0.71875 0.71875 0.945312
0.941406 0.738281 0.96875
0.941406 0.738281 0.96875
0.71875 0.71875 0.945312
0.34375 0.683594 0.898438
0.0664062 0.628906 0.828125
0.386719 0.5625 0.738281
0.539062 0.480469 0.632812
0.507812 0.386719 0.507812
0.34375 0.28125 0.371094
0.148438 0.171875 0.226562
0.0195312 0.0585938 0.078125
0.0195312 0.0742188 0.078125
0.152344 0.226562 0.234375
0.351562 0.371094 0.382812
0.519531 0.507812 0.519531
0.550781 0.628906 0.648438
0.394531 0.738281 0.757812
0.0664062 0.828125 0.851562
0.351562 0.894531 0.921875
0.738281 0.941406 0.96875
0.964844 0.964844 0.992188
0.964844 0.964844 0.992188
0.738281 0.941406 0.96875
0.351562 0.894531 0.921875
0.0664062 0.828125 0.851562
0.394531 0.738281 0.757812
0.550781 0.628906 0.648438
0.519531 0.507812 0.519531
0.351562 0.371094 0.382812
0.152344 0.226562 0.234375
0.0195312 0.0742188 0.078125
0.0195312 0.0742188 0.078125
0.152344 0.226562 0.234375
0.351562 0.371094 0.382812
0.519531 0.507812 0.519531
0.550781 0.628906 0.648438
0.394531 0.738281 0.757812
0.0664062 0.828125 0.851562
0.351562 0.894531 0.921875
0.738281 0.941406 0.96875
0.964844 0.964844 0.992188
0.964844 0.964844 0.992188
0.738281 0.941406 0.96875
0.351562 0.894531 0.921875
0.0664062 0.828125 0.851562
0.394531 0.738281 0.757812
0.550781 0.628906 0.648438
0.519531 0.507812 0.519531
0.351562 0.371094 0.382812
0.152344 0.226562 0.234375
0.0195312 0.0742188 0.078125
0.0195312 0.0585938 0.078125
0.148438 0.171875 0.226562
0.34375 0.28125 0.371094
0.507812 0.386719 0.507812
0.539062 0.480469 0.632812
0.386719 0.5625 0.738281
0.0664062 0.628906 0.828125
0.34375 0.683594 0.898438
0.71875 0.71875 0.945312
0.941406 0.738281 0.96875
0.941406 0.738281 0.96875
0.71875 0.71875 0.945312
0.34375 0.683594 0.898438
0.0664062 0.628906 0.828125
0.386719 0.5625 0.738281
0.539062 0.480469 0.632812
0.507812 0.386719 0.507812
0.34375 0.28125 0.371094
0.148438 0.171875 0.226562
0.0195312 0.0585938 0.078125
0.015625 0.0273438 0.0742188
0.140625 0.0820312 0.214844
0.328125 0.136719 0.355469
0.480469 0.183594 0.484375
0.511719 0.230469 0.601562
0.367188 0.269531 0.703125
0.0625 0.300781 0.789062
0.328125 0.328125 0.855469
0.683594 0.34375 0.898438
0.894531 0.351562 0.921875
0.894531 0.351562 0.921875
0.683594 0.34375 0.898438
0.328125 0.328125 0.855469
0.0625 0.300781 0.789062
0.367188 0.269531 0.703125
0.511719 0.230469 0.601562
0.480469 0.183594 0.484375
0.328125 0.136719 0.355469
0.140625 0.0820312 0.214844
0.015625 0.0273438 0.0742188
0.015625 0.00390625 0.0664062
0.128906 0.015625 0.199219
0.300781 0.0273438 0.328125
0.445312 0.0351562 0.445312
0.472656 0.0429688 0.554688
0.339844 0.0507812 0.648438
0.0585938 0.0585938 0.726562
0.300781 0.0625 0.789062
0.628906 0.0664062 0.828125
0.828125 0.0664062 0.851562
0.828125 0.0664062 0.851562
0.628906 0.0664062 0.828125
0.300781 0.0625 0.789062
0.0585938 0.0585938 0.726562
0.339844 0.0507812 0.648438
0.472656 0.0429688 0.554688
0.445312 0.0351562 0.445312
0.300781 0.0273438 0.328125
0.128906 0.015625 0.199219
0.015625 0.00390625 0.0664062
0.015625 0.03125 0.0585938
0.117188 0.09375 0.175781
0.269531 0.152344 0.289062
0.394531 0.207031 0.398438
0.421875 0.257812 0.492188
0.300781 0.300781 0.578125
0.0507812 0.339844 0.648438
0.269531 0.367188 0.703125
0.5625 0.386719 0.738281
0.738281 0.394531 0.757812
0.738281 0.394531 0.757812
0.5625 0.386719 0.738281
0.269531 0.367188 0.703125