# vtk DataFile Version 2.0
Texture for ND DEM
ASCII
DATASET UNSTRUCTURED_GRID
POINTS 4 float
0 0 0 
1 1 0
1 -1 0
2 0 1

POINT_DATA 4 
COLOR_SCALARS Color 3
1 0 0 
0 1 0
0 0 1
1 1 0
