# vtk DataFile Version 2.0
Texture for ND DEM
ASCII
DATASET STRUCTURED_POINTS
DIMENSIONS 2 3 4
ORIGIN -3.14 -3.14 1.57
SPACING 0.628 0.628 0.314

POINT_DATA 24
COLOR_SCALARS Color 3
0 0 0
0 0 0.5
0 0.5 0
0.5 0 0.5
0 0.5 0.5
0.5 0 0.5
0.5 0.5 0
0.5 0.5 0.5
0 0 0
0 0 0.2
0 0.2 0
0.2 0 0.2
0 0.2 0.2
0.2 0 0.2
0.2 0.2 0
0.2 0.2 0.2
0 0 0
0 0 0.8
0 0.8 0
0.8 0 0.8
0 0.8 0.8
0.8 0 0.8
0.8 0.8 0
0.8 0.8 0.8
