# vtk DataFile Version 2.0
Texture for ND DEM
ASCII
DATASET STRUCTURED_POINTS
DIMENSIONS 40 40 40
ORIGIN 0.0392699 0.0392699 0.0785398
SPACING 0.0785398 0.0785398 0.15708

POINT_DATA 64000
COLOR_SCALARS Color 3
0 0 0
0 0 0
0.00390625 0 0
0.0078125 0 0
0.0117188 0 0.00390625
0.015625 0 0.00390625
0.0195312 0.00390625 0.00390625
0.0195312 0.00390625 0.00390625
0.0234375 0.00390625 0.00390625
0.0195312 0.00390625 0.00390625
0.0195312 0.00390625 0.00390625
0.0117188 0.00390625 0.00390625
0.0078125 0.00390625 0.00390625
0 0.00390625 0.00390625
0.0078125 0.00390625 0.00390625
0.0195312 0.00390625 0.00390625
0.0273438 0.00390625 0.0078125
0.03125 0.00390625 0.0078125
0.0351562 0.00390625 0.0078125
0.0390625 0.00390625 0.0078125
0.0390625 0.00390625 0.0078125
0.0351562 0.00390625 0.0078125
0.03125 0.00390625 0.0078125
0.0273438 0.00390625 0.0078125
0.0195312 0.00390625 0.00390625
0.0078125 0.00390625 0.00390625
0 0.00390625 0.00390625
0.0078125 0.00390625 0.00390625
0.0117188 0.00390625 0.00390625
0.0195312 0.00390625 0.00390625
0.0195312 0.00390625 0.00390625
0.0234375 0.00390625 0.00390625
0.0195312 0.00390625 0.00390625
0.0195312 0.00390625 0.00390625
0.015625 0 0.00390625
0.0117188 0 0.00390625
0.0078125 0 0
0.00390625 0 0
0 0 0
0 0 0
0 0 0
0.00390625 0.00390625 0.00390625
0.0117188 0.0078125 0.00390625
0.0234375 0.0117188 0.00390625
0.0351562 0.015625 0.0078125
0.046875 0.015625 0.0078125
0.0585938 0.0195312 0.0078125
0.0625 0.0234375 0.0117188
0.0664062 0.0234375 0.0117188
0.0625 0.0273438 0.0117188
0.0546875 0.03125 0.0117188
0.0390625 0.03125 0.015625
0.0195312 0.0351562 0.015625
0.00390625 0.0351562 0.015625
0.0273438 0.0351562 0.015625
0.0546875 0.0390625 0.015625
0.078125 0.0390625 0.0195312
0.0976562 0.0390625 0.0195312
0.109375 0.0390625 0.0195312
0.117188 0.0390625 0.0195312
0.117188 0.0390625 0.0195312
0.109375 0.0390625 0.0195312
0.0976562 0.0390625 0.0195312
0.078125 0.0390625 0.0195312
0.0546875 0.0390625 0.015625
0.0273438 0.0351562 0.015625
0.00390625 0.0351562 0.015625
0.0195312 0.0351562 0.015625
0.0390625 0.03125 0.015625
0.0546875 0.03125 0.0117188
0.0625 0.0273438 0.0117188
0.0664062 0.0234375 0.0117188
0.0625 0.0234375 0.0117188
0.0585938 0.0195312 0.0078125
0.046875 0.015625 0.0078125
0.0351562 0.015625 0.0078125
0.0234375 0.0117188 0.00390625
0.0117188 0.0078125 0.00390625
0.00390625 0.00390625 0.00390625
0 0 0
0 0.00390625 0
0.0078125 0.0117188 0.00390625
0.0195312 0.0195312 0.0078125
0.0390625 0.03125 0.0078125
0.0585938 0.0390625 0.0117188
0.078125 0.046875 0.0117188
0.09375 0.0546875 0.015625
0.105469 0.0585938 0.015625
0.109375 0.0664062 0.0195312
0.105469 0.0742188 0.0195312
0.0898438 0.078125 0.0234375
0.0625 0.0859375 0.0234375
0.03125 0.0898438 0.0234375
0.0078125 0.09375 0.0273438
0.046875 0.0976562 0.0273438
0.0898438 0.101562 0.0273438
0.128906 0.105469 0.03125
0.160156 0.105469 0.03125
0.183594 0.109375 0.03125
0.195312 0.109375 0.03125
0.195312 0.109375 0.03125
0.183594 0.109375 0.03125
0.160156 0.105469 0.03125
0.128906 0.105469 0.03125
0.0898438 0.101562 0.0273438
0.046875 0.0976562 0.0273438
0.0078125 0.09375 0.0273438
0.03125 0.0898438 0.0234375
0.0625 0.0859375 0.0234375
0.0898438 0.078125 0.0234375
0.105469 0.0742188 0.0195312
0.109375 0.0664062 0.0195312
0.105469 0.0585938 0.015625
0.09375 0.0546875 0.015625
0.078125 0.046875 0.0117188
0.0585938 0.0390625 0.0117188
0.0390625 0.03125 0.0078125
0.0195312 0.0195312 0.0078125
0.0078125 0.0117188 0.00390625
0 0.00390625 0
0 0.0078125 0
0.0117188 0.0234375 0.00390625
0.03125 0.0390625 0.0078125
0.0546875 0.0546875 0.0117188
0.0820312 0.0703125 0.015625
0.109375 0.0820312 0.0195312
0.132812 0.0976562 0.0195312
0.148438 0.109375 0.0234375
0.152344 0.125 0.0273438
0.144531 0.136719 0.0273438
0.125 0.144531 0.03125
0.0898438 0.15625 0.0351562
0.0429688 0.164062 0.0351562
0.0078125 0.175781 0.0351562
0.0664062 0.179688 0.0390625
0.125 0.1875 0.0390625
0.175781 0.191406 0.0390625
0.222656 0.195312 0.0429688
0.253906 0.199219 0.0429688
0.269531 0.199219 0.0429688
0.269531 0.199219 0.0429688
0.253906 0.199219 0.0429688
0.222656 0.195312 0.0429688
0.175781 0.191406 0.0390625
0.125 0.1875 0.0390625
0.0664062 0.179688 0.0390625
0.0078125 0.175781 0.0351562
0.0429688 0.164062 0.0351562
0.0898438 0.15625 0.0351562
0.125 0.144531 0.03125
0.144531 0.136719 0.0273438
0.152344 0.125 0.0273438
0.148438 0.109375 0.0234375
0.132812 0.0976562 0.0195312
0.109375 0.0820312 0.0195312
0.0820312 0.0703125 0.015625
0.0546875 0.0546875 0.0117188
0.03125 0.0390625 0.0078125
0.0117188 0.0234375 0.00390625
0 0.0078125 0
0 0.0117188 0.00390625
0.015625 0.0351562 0.0078125
0.0390625 0.0585938 0.0117188
0.0703125 0.0820312 0.015625
0.105469 0.105469 0.0195312
0.140625 0.125 0.0234375
0.167969 0.148438 0.0273438
0.1875 0.167969 0.03125
0.195312 0.1875 0.0351562
0.183594 0.203125 0.0351562
0.15625 0.222656 0.0390625
0.113281 0.238281 0.0429688
0.0546875 0.25 0.046875
0.0117188 0.261719 0.046875
0.0859375 0.273438 0.0507812
0.160156 0.285156 0.0507812
0.226562 0.289062 0.0507812
0.28125 0.296875 0.0546875
0.324219 0.300781 0.0546875
0.34375 0.300781 0.0546875
0.34375 0.300781 0.0546875
0.324219 0.300781 0.0546875
0.28125 0.296875 0.0546875
0.226562 0.289062 0.0507812
0.160156 0.285156 0.0507812
0.0859375 0.273438 0.0507812
0.0117188 0.261719 0.046875
0.0546875 0.25 0.046875
0.113281 0.238281 0.0429688
0.15625 0.222656 0.0390625
0.183594 0.203125 0.0351562
0.195312 0.1875 0.0351562
0.1875 0.167969 0.03125
0.167969 0.148438 0.0273438
0.140625 0.125 0.0234375
0.105469 0.105469 0.0195312
0.0703125 0.0820312 0.015625
0.0390625 0.0585938 0.0117188
0.015625 0.0351562 0.0078125
0 0.0117188 0.00390625
0 0.015625 0.00390625
0.015625 0.046875 0.0078125
0.046875 0.078125 0.0117188
0.0820312 0.109375 0.0195312
0.125 0.140625 0.0234375
0.167969 0.167969 0.0273438
0.203125 0.195312 0.03125
0.226562 0.222656 0.0351562
0.234375 0.25 0.0390625
0.222656 0.273438 0.0429688
0.191406 0.296875 0.046875
0.136719 0.316406 0.0507812
0.0664062 0.335938 0.0546875
0.015625 0.351562 0.0585938
0.101562 0.367188 0.0585938
0.191406 0.378906 0.0625
0.273438 0.386719 0.0625
0.339844 0.394531 0.0625
0.390625 0.398438 0.0664062
0.414062 0.402344 0.0664062
0.414062 0.402344 0.0664062
0.390625 0.398438 0.0664062
0.339844 0.394531 0.0625
0.273438 0.386719 0.0625
0.191406 0.378906 0.0625
0.101562 0.367188 0.0585938
0.015625 0.351562 0.0585938
0.0664062 0.335938 0.0546875
0.136719 0.316406 0.0507812
0.191406 0.296875 0.046875
0.222656 0.273438 0.0429688
0.234375 0.25 0.0390625
0.226562 0.222656 0.0351562
0.203125 0.195312 0.03125
0.167969 0.167969 0.0273438
0.125 0.140625 0.0234375
0.0820312 0.109375 0.0195312
0.046875 0.078125 0.0117188
0.015625 0.046875 0.0078125
0 0.015625 0.00390625
0.00390625 0.0195312 0.00390625
0.0195312 0.0585938 0.0078125
0.0546875 0.09375 0.015625
0.0976562 0.132812 0.0195312
0.148438 0.167969 0.0273438
0.195312 0.203125 0.03125
0.238281 0.238281 0.0390625
0.265625 0.269531 0.0429688
0.273438 0.300781 0.046875
0.261719 0.332031 0.0507812
0.222656 0.359375 0.0546875
0.160156 0.382812 0.0585938
0.078125 0.40625 0.0625
0.015625 0.425781 0.0664062
0.121094 0.445312 0.0703125
0.222656 0.457031 0.0703125
0.320312 0.46875 0.0742188
0.398438 0.480469 0.0742188
0.457031 0.484375 0.0742188
0.484375 0.488281 0.078125
0.484375 0.488281 0.078125
0.457031 0.484375 0.0742188
0.398438 0.480469 0.0742188
0.320312 0.46875 0.0742188
0.222656 0.457031 0.0703125
0.121094 0.445312 0.0703125
0.015625 0.425781 0.0664062
0.078125 0.40625 0.0625
0.160156 0.382812 0.0585938
0.222656 0.359375 0.0546875
0.261719 0.332031 0.0507812
0.273438 0.300781 0.046875
0.265625 0.269531 0.0429688
0.238281 0.238281 0.0390625
0.195312 0.203125 0.03125
0.148438 0.167969 0.0273438
0.0976562 0.132812 0.0195312
0.0546875 0.09375 0.015625
0.0195312 0.0585938 0.0078125
0.00390625 0.0195312 0.00390625
0.00390625 0.0195312 0.00390625
0.0234375 0.0625 0.0117188
0.0585938 0.105469 0.015625
0.109375 0.148438 0.0234375
0.167969 0.1875 0.03125
0.222656 0.226562 0.0351562
0.269531 0.265625 0.0429688
0.300781 0.300781 0.046875
0.3125 0.335938 0.0546875
0.296875 0.371094 0.0585938
0.253906 0.398438 0.0625
0.183594 0.429688 0.0664062
0.0898438 0.453125 0.0703125
0.0195312 0.476562 0.0742188
0.136719 0.496094 0.078125
0.253906 0.511719 0.0820312
0.363281 0.523438 0.0820312
0.453125 0.535156 0.0859375
0.519531 0.542969 0.0859375
0.550781 0.542969 0.0859375
0.550781 0.542969 0.0859375
0.519531 0.542969 0.0859375
0.453125 0.535156 0.0859375
0.363281 0.523438 0.0820312
0.253906 0.511719 0.0820312
0.136719 0.496094 0.078125
0.0195312 0.476562 0.0742188
0.0898438 0.453125 0.0703125
0.183594 0.429688 0.0664062
0.253906 0.398438 0.0625
0.296875 0.371094 0.0585938
0.3125 0.335938 0.0546875
0.300781 0.300781 0.046875
0.269531 0.265625 0.0429688
0.222656 0.226562 0.0351562
0.167969 0.1875 0.03125
0.109375 0.148438 0.0234375
0.0585938 0.105469 0.015625
0.0234375 0.0625 0.0117188
0.00390625 0.0195312 0.00390625
0.00390625 0.0234375 0.00390625
0.0234375 0.0664062 0.0117188
0.0664062 0.109375 0.0195312
0.125 0.152344 0.0273438
0.1875 0.195312 0.0351562
0.25 0.234375 0.0390625
0.300781 0.273438 0.046875
0.335938 0.3125 0.0546875
0.347656 0.347656 0.0585938
0.328125 0.382812 0.0664062
0.28125 0.414062 0.0703125
0.203125 0.441406 0.0742188
0.101562 0.46875 0.0820312
0.0195312 0.492188 0.0859375
0.152344 0.511719 0.0898438
0.285156 0.527344 0.0898438
0.40625 0.542969 0.09375
0.503906 0.550781 0.09375
0.578125 0.558594 0.0976562
0.613281 0.5625 0.0976562
0.613281 0.5625 0.0976562
0.578125 0.558594 0.0976562
0.503906 0.550781 0.09375
0.40625 0.542969 0.09375
0.285156 0.527344 0.0898438
0.152344 0.511719 0.0898438
0.0195312 0.492188 0.0859375
0.101562 0.46875 0.0820312
0.203125 0.441406 0.0742188
0.28125 0.414062 0.0703125
0.328125 0.382812 0.0664062
0.347656 0.347656 0.0585938
0.335938 0.3125 0.0546875
0.300781 0.273438 0.046875
0.25 0.234375 0.0390625
0.1875 0.195312 0.0351562
0.125 0.152344 0.0273438
0.0664062 0.109375 0.0195312
0.0234375 0.0664062 0.0117188
0.00390625 0.0234375 0.00390625
0.00390625 0.0195312 0.00390625
0.0273438 0.0625 0.0117188
0.0742188 0.105469 0.0195312
0.136719 0.144531 0.0273438
0.203125 0.183594 0.0351562
0.273438 0.222656 0.0429688
0.332031 0.261719 0.0507812
0.371094 0.296875 0.0585938
0.382812 0.328125 0.0664062
0.363281 0.363281 0.0703125
0.308594 0.390625 0.078125
0.222656 0.417969 0.0820312
0.109375 0.441406 0.0898438
0.0234375 0.464844 0.09375
0.167969 0.484375 0.0976562
0.3125 0.5 0.101562
0.445312 0.511719 0.101562
0.554688 0.523438 0.105469
0.632812 0.53125 0.105469
0.671875 0.53125 0.105469
0.671875 0.53125 0.105469
0.632812 0.53125 0.105469
0.554688 0.523438 0.105469
0.445312 0.511719 0.101562
0.3125 0.5 0.101562
0.167969 0.484375 0.0976562
0.0234375 0.464844 0.09375
0.109375 0.441406 0.0898438
0.222656 0.417969 0.0820312
0.308594 0.390625 0.078125
0.363281 0.363281 0.0703125
0.382812 0.328125 0.0664062
0.371094 0.296875 0.0585938
0.332031 0.261719 0.0507812
0.273438 0.222656 0.0429688
0.203125 0.183594 0.0351562
0.136719 0.144531 0.0273438
0.0742188 0.105469 0.0195312
0.0273438 0.0625 0.0117188
0.00390625 0.0195312 0.00390625
0.00390625 0.0195312 0.00390625
0.03125 0.0546875 0.0117188
0.078125 0.0898438 0.0234375
0.144531 0.125 0.03125
0.222656 0.15625 0.0390625
0.296875 0.191406 0.046875
0.359375 0.222656 0.0546875
0.398438 0.253906 0.0625
0.414062 0.28125 0.0703125
0.390625 0.308594 0.078125
0.332031 0.332031 0.0859375
0.242188 0.355469 0.0898438
0.117188 0.378906 0.09375
0.0234375 0.398438 0.101562
0.179688 0.414062 0.105469
0.335938 0.425781 0.109375
0.480469 0.4375 0.109375
0.597656 0.445312 0.113281
0.683594 0.453125 0.113281
0.730469 0.453125 0.113281
0.730469 0.453125 0.113281
0.683594 0.453125 0.113281
0.597656 0.445312 0.113281
0.480469 0.4375 0.109375
0.335938 0.425781 0.109375
0.179688 0.414062 0.105469
0.0234375 0.398438 0.101562
0.117188 0.378906 0.09375
0.242188 0.355469 0.0898438
0.332031 0.332031 0.0859375
0.390625 0.308594 0.078125
0.414062 0.28125 0.0703125
0.398438 0.253906 0.0625
0.359375 0.222656 0.0546875
0.296875 0.191406 0.046875
0.222656 0.15625 0.0390625
0.144531 0.125 0.03125
0.078125 0.0898438 0.0234375
0.03125 0.0546875 0.0117188
0.00390625 0.0195312 0.00390625
0.00390625 0.0117188 0.00390625
0.03125 0.0390625 0.015625
0.0859375 0.0625 0.0234375
0.15625 0.0898438 0.0351562
0.238281 0.113281 0.0429688
0.316406 0.136719 0.0507812
0.382812 0.160156 0.0585938
0.429688 0.183594 0.0664062
0.441406 0.203125 0.0742188
0.417969 0.222656 0.0820312
0.355469 0.242188 0.0898438
0.257812 0.257812 0.0976562
0.128906 0.273438 0.101562
0.0273438 0.285156 0.105469
0.195312 0.296875 0.113281
0.359375 0.308594 0.117188
0.511719 0.316406 0.117188
0.640625 0.324219 0.121094
0.730469 0.328125 0.121094
0.777344 0.328125 0.121094
0.777344 0.328125 0.121094
0.730469 0.328125 0.121094
0.640625 0.324219 0.121094
0.511719 0.316406 0.117188
0.359375 0.308594 0.117188
0.195312 0.296875 0.113281
0.0273438 0.285156 0.105469
0.128906 0.273438 0.101562
0.257812 0.257812 0.0976562
0.355469 0.242188 0.0898438
0.417969 0.222656 0.0820312
0.441406 0.203125 0.0742188
0.429688 0.183594 0.0664062
0.382812 0.160156 0.0585938
0.316406 0.136719 0.0507812
0.238281 0.113281 0.0429688
0.15625 0.0898438 0.0351562
0.0859375 0.0625 0.0234375
0.03125 0.0390625 0.015625
0.00390625 0.0117188 0.00390625
0.00390625 0.0078125 0.00390625
0.0351562 0.0195312 0.015625
0.0898438 0.03125 0.0234375
0.164062 0.0429688 0.0351562
0.25 0.0546875 0.046875
0.335938 0.0664062 0.0546875
0.40625 0.078125 0.0625
0.453125 0.0898438 0.0703125
0.46875 0.101562 0.0820312
0.441406 0.109375 0.0898438
0.378906 0.117188 0.09375
0.273438 0.128906 0.101562
0.136719 0.136719 0.109375
0.0273438 0.140625 0.113281
0.203125 0.148438 0.117188
0.382812 0.152344 0.121094
0.542969 0.15625 0.125
0.679688 0.160156 0.128906
0.773438 0.160156 0.128906
0.824219 0.160156 0.128906
0.824219 0.160156 0.128906
0.773438 0.160156 0.128906
0.679688 0.160156 0.128906
0.542969 0.15625 0.125
0.382812 0.152344 0.121094
0.203125 0.148438 0.117188
0.0273438 0.140625 0.113281
0.136719 0.136719 0.109375
0.273438 0.128906 0.101562
0.378906 0.117188 0.09375
0.441406 0.109375 0.0898438
0.46875 0.101562 0.0820312
0.453125 0.0898438 0.0703125
0.40625 0.078125 0.0625
0.335938 0.0664062 0.0546875
0.25 0.0546875 0.046875
0.164062 0.0429688 0.0351562
0.0898438 0.03125 0.0234375
0.0351562 0.0195312 0.015625
0.00390625 0.0078125 0.00390625
0.00390625 0 0.00390625
0.0351562 0.00390625 0.015625
0.09375 0.0078125 0.0273438
0.175781 0.0078125 0.0351562
0.261719 0.0117188 0.046875
0.351562 0.015625 0.0585938
0.425781 0.015625 0.0664062
0.476562 0.0195312 0.0742188
0.492188 0.0195312 0.0859375
0.464844 0.0234375 0.09375
0.398438 0.0234375 0.101562
0.285156 0.0273438 0.105469
0.140625 0.0273438 0.113281
0.03125 0.03125 0.117188
0.214844 0.03125 0.125
0.398438 0.03125 0.128906
0.570312 0.03125 0.132812
0.710938 0.0351562 0.132812
0.8125 0.0351562 0.136719
0.867188 0.0351562 0.136719
0.867188 0.0351562 0.136719
0.8125 0.0351562 0.136719
0.710938 0.0351562 0.132812
0.570312 0.03125 0.132812
0.398438 0.03125 0.128906
0.214844 0.03125 0.125
0.03125 0.03125 0.117188
0.140625 0.0273438 0.113281
0.285156 0.0273438 0.105469
0.398438 0.0234375 0.101562
0.464844 0.0234375 0.09375
0.492188 0.0195312 0.0859375
0.476562 0.0195312 0.0742188
0.425781 0.015625 0.0664062
0.351562 0.015625 0.0585938
0.261719 0.0117188 0.046875
0.175781 0.0078125 0.0351562
0.09375 0.0078125 0.0273438
0.0351562 0.00390625 0.015625
0.00390625 0 0.00390625
0.00390625 0.0078125 0.00390625
0.0351562 0.0273438 0.015625
0.0976562 0.046875 0.0273438
0.179688 0.0664062 0.0390625
0.273438 0.0859375 0.0507812
0.367188 0.101562 0.0585938
0.445312 0.121094 0.0703125
0.496094 0.136719 0.078125
0.511719 0.152344 0.0898438
0.484375 0.167969 0.0976562
0.414062 0.179688 0.105469
0.296875 0.195312 0.113281
0.148438 0.203125 0.117188
0.03125 0.214844 0.125
0.222656 0.222656 0.128906
0.417969 0.230469 0.132812
0.59375 0.238281 0.136719
0.742188 0.242188 0.140625
0.847656 0.246094 0.140625
0.902344 0.246094 0.140625
0.902344 0.246094 0.140625
0.847656 0.246094 0.140625
0.742188 0.242188 0.140625
0.59375 0.238281 0.136719
0.417969 0.230469 0.132812
0.222656 0.222656 0.128906
0.03125 0.214844 0.125
0.148438 0.203125 0.117188
0.296875 0.195312 0.113281
0.414062 0.179688 0.105469
0.484375 0.167969 0.0976562
0.511719 0.152344 0.0898438
0.496094 0.136719 0.078125
0.445312 0.121094 0.0703125
0.367188 0.101562 0.0585938
0.273438 0.0859375 0.0507812
0.179688 0.0664062 0.0390625
0.0976562 0.046875 0.0273438
0.0351562 0.0273438 0.015625
0.00390625 0.0078125 0.00390625
0.00390625 0.0195312 0.00390625
0.0390625 0.0546875 0.015625
0.101562 0.0898438 0.0273438
0.1875 0.125 0.0390625
0.285156 0.160156 0.0507812
0.378906 0.191406 0.0625
0.457031 0.222656 0.0703125
0.511719 0.253906 0.0820312
0.527344 0.285156 0.0898438
0.5 0.3125 0.101562
0.425781 0.335938 0.109375
0.308594 0.359375 0.117188
0.152344 0.382812 0.121094
0.03125 0.398438 0.128906
0.230469 0.417969 0.132812
0.429688 0.429688 0.136719
0.613281 0.441406 0.140625
0.765625 0.449219 0.144531
0.875 0.457031 0.144531
0.929688 0.457031 0.148438
0.929688 0.457031 0.148438
0.875 0.457031 0.144531
0.765625 0.449219 0.144531
0.613281 0.441406 0.140625
0.429688 0.429688 0.136719
0.230469 0.417969 0.132812
0.03125 0.398438 0.128906
0.152344 0.382812 0.121094
0.308594 0.359375 0.117188
0.425781 0.335938 0.109375
0.5 0.3125 0.101562
0.527344 0.285156 0.0898438
0.511719 0.253906 0.0820312
0.457031 0.222656 0.0703125
0.378906 0.191406 0.0625
0.285156 0.160156 0.0507812
0.1875 0.125 0.0390625
0.101562 0.0898438 0.0273438
0.0390625 0.0546875 0.015625
0.00390625 0.0195312 0.00390625
0.00390625 0.0273438 0.0078125
0.0390625 0.078125 0.0195312
0.105469 0.128906 0.03125
0.191406 0.175781 0.0390625
0.289062 0.226562 0.0507812
0.386719 0.273438 0.0625
0.46875 0.320312 0.0742188
0.523438 0.363281 0.0820312
0.542969 0.40625 0.09375
0.511719 0.445312 0.101562
0.4375 0.480469 0.109375
0.316406 0.511719 0.117188
0.15625 0.542969 0.125
0.03125 0.570312 0.132812
0.238281 0.59375 0.136719
0.441406 0.613281 0.140625
0.628906 0.628906 0.144531
0.785156 0.640625 0.148438
0.898438 0.648438 0.148438
0.953125 0.652344 0.152344
0.953125 0.652344 0.152344
0.898438 0.648438 0.148438
0.785156 0.640625 0.148438
0.628906 0.628906 0.144531
0.441406 0.613281 0.140625
0.238281 0.59375 0.136719
0.03125 0.570312 0.132812
0.15625 0.542969 0.125
0.316406 0.511719 0.117188
0.4375 0.480469 0.109375
0.511719 0.445312 0.101562
0.542969 0.40625 0.09375
0.523438 0.363281 0.0820312
0.46875 0.320312 0.0742188
0.386719 0.273438 0.0625
0.289062 0.226562 0.0507812
0.191406 0.175781 0.0390625
0.105469 0.128906 0.03125
0.0390625 0.078125 0.0195312
0.00390625 0.0273438 0.0078125
0.00390625 0.03125 0.0078125
0.0390625 0.0976562 0.0195312
0.105469 0.160156 0.03125
0.195312 0.222656 0.0429688
0.296875 0.28125 0.0546875
0.394531 0.339844 0.0625
0.480469 0.398438 0.0742188
0.535156 0.453125 0.0859375
0.550781 0.503906 0.09375
0.523438 0.554688 0.105469
0.445312 0.597656 0.113281
0.324219 0.640625 0.121094
0.160156 0.679688 0.128906
0.0351562 0.710938 0.132812
0.242188 0.742188 0.140625
0.449219 0.765625 0.144531
0.640625 0.785156 0.148438
0.800781 0.800781 0.152344
0.914062 0.808594 0.152344
0.972656 0.816406 0.152344
0.972656 0.816406 0.152344
0.914062 0.808594 0.152344
0.800781 0.800781 0.152344
0.640625 0.785156 0.148438
0.449219 0.765625 0.144531
0.242188 0.742188 0.140625
0.0351562 0.710938 0.132812
0.160156 0.679688 0.128906
0.324219 0.640625 0.121094
0.445312 0.597656 0.113281
0.523438 0.554688 0.105469
0.550781 0.503906 0.09375
0.535156 0.453125 0.0859375
0.480469 0.398438 0.0742188
0.394531 0.339844 0.0625
0.296875 0.28125 0.0546875
0.195312 0.222656 0.0429688
0.105469 0.160156 0.03125
0.0390625 0.0976562 0.0195312
0.00390625 0.03125 0.0078125
0.00390625 0.0351562 0.0078125
0.0390625 0.109375 0.0195312
0.109375 0.183594 0.03125
0.199219 0.253906 0.0429688
0.300781 0.324219 0.0546875
0.398438 0.390625 0.0664062
0.484375 0.457031 0.0742188
0.542969 0.519531 0.0859375
0.558594 0.578125 0.0976562
0.53125 0.632812 0.105469
0.453125 0.683594 0.113281
0.328125 0.730469 0.121094
0.160156 0.773438 0.128906
0.0351562 0.8125 0.136719
0.246094 0.847656 0.140625
0.457031 0.875 0.144531
0.648438 0.898438 0.148438
0.808594 0.914062 0.152344
0.925781 0.925781 0.152344
0.984375 0.929688 0.15625
0.984375 0.929688 0.15625
0.925781 0.925781 0.152344
0.808594 0.914062 0.152344
0.648438 0.898438 0.148438
0.457031 0.875 0.144531
0.246094 0.847656 0.140625
0.0351562 0.8125 0.136719
0.160156 0.773438 0.128906
0.328125 0.730469 0.121094
0.453125 0.683594 0.113281
0.53125 0.632812 0.105469
0.558594 0.578125 0.0976562
0.542969 0.519531 0.0859375
0.484375 0.457031 0.0742188
0.398438 0.390625 0.0664062
0.300781 0.324219 0.0546875
0.199219 0.253906 0.0429688
0.109375 0.183594 0.03125
0.0390625 0.109375 0.0195312
0.00390625 0.0351562 0.0078125
0.00390625 0.0390625 0.0078125
0.0390625 0.117188 0.0195312
0.109375 0.195312 0.03125
0.199219 0.269531 0.0429688
0.300781 0.34375 0.0546875
0.402344 0.414062 0.0664062
0.488281 0.484375 0.078125
0.542969 0.550781 0.0859375
0.5625 0.613281 0.0976562
0.53125 0.671875 0.105469
0.453125 0.730469 0.113281
0.328125 0.777344 0.121094
0.160156 0.824219 0.128906
0.0351562 0.867188 0.136719
0.246094 0.902344 0.140625
0.457031 0.929688 0.148438
0.652344 0.953125 0.152344
0.816406 0.972656 0.152344
0.929688 0.984375 0.15625
0.992188 0.992188 0.15625
0.992188 0.992188 0.15625
0.929688 0.984375 0.15625
0.816406 0.972656 0.152344
0.652344 0.953125 0.152344
0.457031 0.929688 0.148438
0.246094 0.902344 0.140625
0.0351562 0.867188 0.136719
0.160156 0.824219 0.128906
0.328125 0.777344 0.121094
0.453125 0.730469 0.113281
0.53125 0.671875 0.105469
0.5625 0.613281 0.0976562
0.542969 0.550781 0.0859375
0.488281 0.484375 0.078125
0.402344 0.414062 0.0664062
0.300781 0.34375 0.0546875
0.199219 0.269531 0.0429688
0.109375 0.195312 0.03125
0.0390625 0.117188 0.0195312
0.00390625 0.0390625 0.0078125
0.00390625 0.0390625 0.0078125
0.0390625 0.117188 0.0195312
0.109375 0.195312 0.03125
0.199219 0.269531 0.0429688
0.300781 0.34375 0.0546875
0.402344 0.414062 0.0664062
0.488281 0.484375 0.078125
0.542969 0.550781 0.0859375
0.5625 0.613281 0.0976562
0.53125 0.671875 0.105469
0.453125 0.730469 0.113281
0.328125 0.777344 0.121094
0.160156 0.824219 0.128906
0.0351562 0.867188 0.136719
0.246094 0.902344 0.140625
0.457031 0.929688 0.148438
0.652344 0.953125 0.152344
0.816406 0.972656 0.152344
0.929688 0.984375 0.15625
0.992188 0.992188 0.15625
0.992188 0.992188 0.15625
0.929688 0.984375 0.15625
0.816406 0.972656 0.152344
0.652344 0.953125 0.152344
0.457031 0.929688 0.148438
0.246094 0.902344 0.140625
0.0351562 0.867188 0.136719
0.160156 0.824219 0.128906
0.328125 0.777344 0.121094
0.453125 0.730469 0.113281
0.53125 0.671875 0.105469
0.5625 0.613281 0.0976562
0.542969 0.550781 0.0859375
0.488281 0.484375 0.078125
0.402344 0.414062 0.0664062
0.300781 0.34375 0.0546875
0.199219 0.269531 0.0429688
0.109375 0.195312 0.03125
0.0390625 0.117188 0.0195312
0.00390625 0.0390625 0.0078125
0.00390625 0.0351562 0.0078125
0.0390625 0.109375 0.0195312
0.109375 0.183594 0.03125
0.199219 0.253906 0.0429688
0.300781 0.324219 0.0546875
0.398438 0.390625 0.0664062
0.484375 0.457031 0.0742188
0.542969 0.519531 0.0859375
0.558594 0.578125 0.0976562
0.53125 0.632812 0.105469
0.453125 0.683594 0.113281
0.328125 0.730469 0.121094
0.160156 0.773438 0.128906
0.0351562 0.8125 0.136719
0.246094 0.847656 0.140625
0.457031 0.875 0.144531
0.648438 0.898438 0.148438
0.808594 0.914062 0.152344
0.925781 0.925781 0.152344
0.984375 0.929688 0.15625
0.984375 0.929688 0.15625
0.925781 0.925781 0.152344
0.808594 0.914062 0.152344
0.648438 0.898438 0.148438
0.457031 0.875 0.144531
0.246094 0.847656 0.140625
0.0351562 0.8125 0.136719
0.160156 0.773438 0.128906
0.328125 0.730469 0.121094
0.453125 0.683594 0.113281
0.53125 0.632812 0.105469
0.558594 0.578125 0.0976562
0.542969 0.519531 0.0859375
0.484375 0.457031 0.0742188
0.398438 0.390625 0.0664062
0.300781 0.324219 0.0546875
0.199219 0.253906 0.0429688
0.109375 0.183594 0.03125
0.0390625 0.109375 0.0195312
0.00390625 0.0351562 0.0078125
0.00390625 0.03125 0.0078125
0.0390625 0.0976562 0.0195312
0.105469 0.160156 0.03125
0.195312 0.222656 0.0429688
0.296875 0.28125 0.0546875
0.394531 0.339844 0.0625
0.480469 0.398438 0.0742188
0.535156 0.453125 0.0859375
0.550781 0.503906 0.09375
0.523438 0.554688 0.105469
0.445312 0.597656 0.113281
0.324219 0.640625 0.121094
0.160156 0.679688 0.128906
0.0351562 0.710938 0.132812
0.242188 0.742188 0.140625
0.449219 0.765625 0.144531
0.640625 0.785156 0.148438
0.800781 0.800781 0.152344
0.914062 0.808594 0.152344
0.972656 0.816406 0.152344
0.972656 0.816406 0.152344
0.914062 0.808594 0.152344
0.800781 0.800781 0.152344
0.640625 0.785156 0.148438
0.449219 0.765625 0.144531
0.242188 0.742188 0.140625
0.0351562 0.710938 0.132812
0.160156 0.679688 0.128906
0.324219 0.640625 0.121094
0.445312 0.597656 0.113281
0.523438 0.554688 0.105469
0.550781 0.503906 0.09375
0.535156 0.453125 0.0859375
0.480469 0.398438 0.0742188
0.394531 0.339844 0.0625
0.296875 0.28125 0.0546875
0.195312 0.222656 0.0429688
0.105469 0.160156 0.03125
0.0390625 0.0976562 0.0195312
0.00390625 0.03125 0.0078125
0.00390625 0.0273438 0.0078125
0.0390625 0.078125 0.0195312
0.105469 0.128906 0.03125
0.191406 0.175781 0.0390625
0.289062 0.226562 0.0507812
0.386719 0.273438 0.0625
0.46875 0.320312 0.0742188
0.523438 0.363281 0.0820312
0.542969 0.40625 0.09375
0.511719 0.445312 0.101562
0.4375 0.480469 0.109375
0.316406 0.511719 0.117188
0.15625 0.542969 0.125
0.03125 0.570312 0.132812
0.238281 0.59375 0.136719
0.441406 0.613281 0.140625
0.628906 0.628906 0.144531
0.785156 0.640625 0.148438
0.898438 0.648438 0.148438
0.953125 0.652344 0.152344
0.953125 0.652344 0.152344
0.898438 0.648438 0.148438
0.785156 0.640625 0.148438
0.628906 0.628906 0.144531
0.441406 0.613281 0.140625
0.238281 0.59375 0.136719
0.03125 0.570312 0.132812
0.15625 0.542969 0.125
0.316406 0.511719 0.117188
0.4375 0.480469 0.109375
0.511719 0.445312 0.101562
0.542969 0.40625 0.09375
0.523438 0.363281 0.0820312
0.46875 0.320312 0.0742188
0.386719 0.273438 0.0625
0.289062 0.226562 0.0507812
0.191406 0.175781 0.0390625
0.105469 0.128906 0.03125
0.0390625 0.078125 0.0195312
0.00390625 0.0273438 0.0078125
0.00390625 0.0195312 0.00390625
0.0390625 0.0546875 0.015625
0.101562 0.0898438 0.0273438
0.1875 0.125 0.0390625
0.285156 0.160156 0.0507812
0.378906 0.191406 0.0625
0.457031 0.222656 0.0703125
0.511719 0.253906 0.0820312
0.527344 0.285156 0.0898438
0.5 0.3125 0.101562
0.425781 0.335938 0.109375
0.308594 0.359375 0.117188
0.152344 0.382812 0.121094
0.03125 0.398438 0.128906
0.230469 0.417969 0.132812
0.429688 0.429688 0.136719
0.613281 0.441406 0.140625
0.765625 0.449219 0.144531
0.875 0.457031 0.144531
0.929688 0.457031 0.148438
0.929688 0.457031 0.148438
0.875 0.457031 0.144531
0.765625 0.449219 0.144531
0.613281 0.441406 0.140625
0.429688 0.429688 0.136719
0.230469 0.417969 0.132812
0.03125 0.398438 0.128906
0.152344 0.382812 0.121094
0.308594 0.359375 0.117188
0.425781 0.335938 0.109375
0.5 0.3125 0.101562
0.527344 0.285156 0.0898438
0.511719 0.253906 0.0820312
0.457031 0.222656 0.0703125
0.378906 0.191406 0.0625
0.285156 0.160156 0.0507812
0.1875 0.125 0.0390625
0.101562 0.0898438 0.0273438
0.0390625 0.0546875 0.015625
0.00390625 0.0195312 0.00390625
0.00390625 0.0078125 0.00390625
0.0351562 0.0273438 0.015625
0.0976562 0.046875 0.0273438
0.179688 0.0664062 0.0390625
0.273438 0.0859375 0.0507812
0.367188 0.101562 0.0585938
0.445312 0.121094 0.0703125
0.496094 0.136719 0.078125
0.511719 0.152344 0.0898438
0.484375 0.167969 0.0976562
0.414062 0.179688 0.105469
0.296875 0.195312 0.113281
0.148438 0.203125 0.117188
0.03125 0.214844 0.125
0.222656 0.222656 0.128906
0.417969 0.230469 0.132812
0.59375 0.238281 0.136719
0.742188 0.242188 0.140625
0.847656 0.246094 0.140625
0.902344 0.246094 0.140625
0.902344 0.246094 0.140625
0.847656 0.246094 0.140625
0.742188 0.242188 0.140625
0.59375 0.238281 0.136719
0.417969 0.230469 0.132812
0.222656 0.222656 0.128906
0.03125 0.214844 0.125
0.148438 0.203125 0.117188
0.296875 0.195312 0.113281
0.414062 0.179688 0.105469
0.484375 0.167969 0.0976562
0.511719 0.152344 0.0898438
0.496094 0.136719 0.078125
0.445312 0.121094 0.0703125
0.367188 0.101562 0.0585938
0.273438 0.0859375 0.0507812
0.179688 0.0664062 0.0390625
0.0976562 0.046875 0.0273438
0.0351562 0.0273438 0.015625
0.00390625 0.0078125 0.00390625
0.00390625 0 0.00390625
0.0351562 0.00390625 0.015625
0.09375 0.0078125 0.0273438
0.175781 0.0078125 0.0351562
0.261719 0.0117188 0.046875
0.351562 0.015625 0.0585938
0.425781 0.015625 0.0664062
0.476562 0.0195312 0.0742188
0.492188 0.0195312 0.0859375
0.464844 0.0234375 0.09375
0.398438 0.0234375 0.101562
0.285156 0.0273438 0.105469
0.140625 0.0273438 0.113281
0.03125 0.03125 0.117188
0.214844 0.03125 0.125
0.398438 0.03125 0.128906
0.570312 0.03125 0.132812
0.710938 0.0351562 0.132812
0.8125 0.0351562 0.136719
0.867188 0.0351562 0.136719
0.867188 0.0351562 0.136719
0.8125 0.0351562 0.136719
0.710938 0.0351562 0.132812
0.570312 0.03125 0.132812
0.398438 0.03125 0.128906
0.214844 0.03125 0.125
0.03125 0.03125 0.117188
0.140625 0.0273438 0.113281
0.285156 0.0273438 0.105469
0.398438 0.0234375 0.101562
0.464844 0.0234375 0.09375
0.492188 0.0195312 0.0859375
0.476562 0.0195312 0.0742188
0.425781 0.015625 0.0664062
0.351562 0.015625 0.0585938
0.261719 0.0117188 0.046875
0.175781 0.0078125 0.0351562
0.09375 0.0078125 0.0273438
0.0351562 0.00390625 0.015625
0.00390625 0 0.00390625
0.00390625 0.0078125 0.00390625
0.0351562 0.0195312 0.015625
0.0898438 0.03125 0.0234375
0.164062 0.0429688 0.0351562
0.25 0.0546875 0.046875
0.335938 0.0664062 0.0546875
0.40625 0.078125 0.0625
0.453125 0.0898438 0.0703125
0.46875 0.101562 0.0820312
0.441406 0.109375 0.0898438
0.378906 0.117188 0.09375
0.273438 0.128906 0.101562
0.136719 0.136719 0.109375