# vtk DataFile Version 2.0
Some data
ASCII
DATASET STRUCTURED_POINTS
DIMENSIONS 5 3 5
ORIGIN 0.5 0.833333 0.34
SPACING 1 1.66667 0.68
POINT_DATA 75
SCALARS RHO float 
LOOKUP_TABLE default 
0.373161 0.433555 0.452132 0.425438 0.49239 0.400556 0.483964 0.356866 0.395441 0.296386 0.369459 0.329111 0.454332 0.371606 0.561554 0.39614 0.510541 0.556132 0.548962 0.585471 0.39402 0.610736 0.504708 0.615423 0.598381 0.549415 0.394409 0.584982 0.531623 0.568965 0.45005 0.483037 0.594144 0.633247 0.597412 0.444706 0.6303 0.586517 0.56973 0.577529 0.550876 0.403511 0.571296 0.545838 0.568705 0.424035 0.628064 0.602239 0.540785 0.582315 0.443635 0.547092 0.612479 0.603014 0.55797 0.549293 0.593276 0.562666 0.567572 0.600846 0.322127 0.571022 0.417607 0.518789 0.389953 0.377527 0.419753 0.600506 0.549016 0.600166 0.508156 0.50141 0.433956 0.403172 0.332371 

VECTORS VAVG float 
-0.000347837 0.00272199 0.000228046 -0.00862365 0.0865556 0.00747003 -0.0101921 0.178172 -0.00619268 0.0160879 0.245313 -0.0684907 0.0011062 0.262041 -0.0688365 -0.0054851 0.010425 9.6858e-05 -0.0184025 0.113639 -0.0051434 -0.0315699 0.176871 -0.0178532 -0.18949 0.210682 -0.04401 -0.161513 0.254756 -0.0210621 -0.000286333 0.004162 0.00114141 0.0185539 0.126002 -0.0077719 0.032876 0.204959 -0.0505044 -0.0110293 0.254415 -0.0465821 -0.0430521 0.28941 -0.0359275 0.000679666 0.00240695 0.00119658 0.00154135 0.0900467 0.0256909 -0.0424856 0.163508 0.0301391 0.00431683 0.24109 -0.0981737 0.0242122 0.212419 -0.0590519 0.00504308 0.0115777 0.000376586 0.0256713 0.0906372 -0.00115548 0.00231909 0.176439 -0.0179983 -0.101274 0.220531 -0.0273358 -0.0776889 0.266321 -0.00872077 0.00160848 0.00268046 0.00257778 0.0502788 0.122546 -0.0124224 0.0733849 0.21837 -0.0732054 0.0358702 0.274842 -0.110254 -0.00917751 0.248563 -0.0393052 -0.00098506 0.00581713 -0.000758666 -0.00329648 0.117984 0.0012489 -0.0402327 0.159318 0.0104029 -0.0144206 0.175496 -0.0614924 0.0226153 0.196792 -0.0545538 0.0016616 0.00707953 -0.000305373 0.0211415 0.118462 -0.0105207 0.0356361 0.164298 -0.0184495 -0.0350732 0.197328 -0.0277683 -0.0703399 0.250906 -0.0334757 0.00127259 0.00502188 0.00190774 0.0452031 0.128226 -0.0221685 0.0417302 0.174057 -0.0238312 -0.0185557 0.301176 -0.0849513 -0.0144983 0.237511 -0.0386574 -0.00318739 0.0137231 -0.00224448 -0.0279898 0.119934 -0.0122345 -0.0273901 0.160988 -0.0188055 -0.0126525 0.167408 -0.0587759 0.0203239 0.2172 -0.0649455 -0.000226328 0.00578885 -0.000530471 -0.00209775 0.128231 -0.0115566 -0.00825807 0.128534 -0.016655 -0.0689844 0.164095 -0.0432561 -0.107638 0.233751 -0.0490242 0.00201999 0.0124306 0.000471491 0.020638 0.111425 -0.015514 -0.0133163 0.12963 0.00542679 -0.0203634 0.260071 -0.0621042 -0.0205921 0.224212 -0.0338445 -0.000156382 0.00216629 0.000124445 -0.0285788 0.0876583 0.00496915 -0.0279853 0.147238 -0.0190547 0.00525621 0.193083 -0.0481166 0.0101355 0.246466 -0.0543134 -0.000664669 0.00454661 0.000455488 -0.015012 0.100946 0.00100734 -0.0457004 0.171776 -0.0271064 -0.109468 0.209038 -0.0405456 -0.123035 0.233356 -0.0208479 -0.000918577 0.00995632 0.000222112 -0.00283239 0.0947158 -0.00300763 -0.0351814 0.143134 -0.048604 -0.0194145 0.215858 -0.0732242 -0.030504 0.226416 -0.0294954 

