# vtk DataFile Version 2.0
Some data
ASCII
DATASET STRUCTURED_POINTS
DIMENSIONS 5 3 5
ORIGIN 0.5 0.833333 0.34
SPACING 1 1.66667 0.68
POINT_DATA 75
SCALARS RHO float 
LOOKUP_TABLE default 
0.371382 0.405091 0.454403 0.530722 0.309855 0.368034 0.26675 0.48905 0.454429 0.298362 0.31869 0.346416 0.517503 0.404645 0.445373 0.435952 0.604808 0.555666 0.64448 0.547794 0.419447 0.643259 0.593518 0.649782 0.492118 0.364004 0.562167 0.597773 0.510542 0.579395 0.454061 0.566906 0.51188 0.597553 0.546091 0.478257 0.66471 0.612305 0.629278 0.489121 0.473519 0.606039 0.512842 0.440879 0.437596 0.412106 0.49941 0.447641 0.581314 0.435481 0.485623 0.56293 0.602305 0.520777 0.575305 0.540027 0.569084 0.603584 0.592395 0.486261 0.315803 0.213383 0.396345 0.411466 0.36671 0.378422 0.487597 0.459328 0.290774 0.589868 0.463374 0.311148 0.539978 0.434076 0.464253 

VECTORS VAVG float 
0.000203964 0.00103029 0.000167068 0.00910687 0.0294136 -0.00135963 0.0146704 0.0776017 0.00703459 0.0126865 0.139163 0.0254973 0.00373021 0.153275 0.0265422 0.000285852 0.000402263 2.2278e-05 -0.00122273 0.0292293 -0.0106126 -0.00841524 0.0960866 0.00233572 -0.00576542 0.133197 0.0133434 -0.00879143 0.132294 0.0219057 6.36064e-05 0.000731405 -9.9468e-05 0.00426662 0.0444572 -0.0064008 0.0172413 0.109699 -0.0208075 -0.0121275 0.142611 0.00372044 -0.0189592 0.146029 0.0188345 0.000601799 0.00154684 -0.000208939 0.00442211 0.021869 -0.00121427 -0.000198699 0.0844937 0.0153723 0.0162703 0.142628 0.0318374 0.00554738 0.143189 0.0279154 0.00210427 0.00300906 0.000143252 0.00266338 0.0253474 -0.00794274 -0.000453346 0.0799167 -0.00305353 -0.000922064 0.130749 0.0122087 -0.0107638 0.13529 0.0221225 -0.00102601 0.00296797 0.00189345 -0.000326124 0.0334991 0.00209825 0.0115141 0.0799935 -0.00331327 -0.0171838 0.129612 0.00979645 -0.00101903 0.132092 0.0104674 0.000182789 0.00118909 -0.000201641 -0.00530449 0.0359157 -0.000788801 -0.00626818 0.111771 0.0163403 0.0154584 0.136375 0.0264947 0.0121635 0.144813 0.0297052 0.00173491 0.00305101 8.04924e-05 0.00746702 0.0295193 -0.00357606 0.00761404 0.0827535 0.00671387 0.00579911 0.12812 0.0157872 -0.00553505 0.154797 0.0149738 -0.000502921 0.0020164 0.00156148 -0.00502797 0.0154196 0.00373423 0.00392444 0.0548617 0.00257416 -0.024198 0.123439 0.00925933 0.0066796 0.136909 0.0120967 0.000212154 0.00238517 -0.000450518 -0.00575532 0.0333114 -0.00263467 0.0158371 0.113057 0.0143707 0.0160264 0.135391 0.0261663 0.0108656 0.158192 0.0327223 0.00199722 0.0036548 0.000167845 0.00527792 0.0334346 0.00118948 0.011206 0.0893157 0.0216518 0.0222555 0.126315 0.0225974 0.0169414 0.166349 0.00592046 0.00066365 -0.000291149 3.5032e-05 -0.0020677 0.0138519 -0.000328714 0.00687308 0.06936 0.00385416 -0.00549921 0.118992 0.0104419 -5.89847e-05 0.144796 0.0159433 -5.14702e-06 -3.19905e-05 -4.84868e-05 0.00197549 0.0362456 -0.00433277 0.0212442 0.107502 0.0123382 0.0174864 0.137644 0.0279435 0.0047943 0.152959 0.031653 -0.00230107 0.00536642 -0.000597194 -0.0707982 0.0752276 -0.0193752 -0.0333796 0.0874762 0.00327096 0.0218002 0.146291 0.0223847 0.0101331 0.162992 0.00908611 0.000252103 -0.00213592 0.000301972 0.0060208 0.0595129 -0.00247837 0.0113637 0.0937812 -0.00792248 0.0273786 0.129478 0.00893348 0.00125016 0.146431 0.0171285 

