# vtk DataFile Version 2.0
Some data
ASCII
DATASET STRUCTURED_POINTS
DIMENSIONS 5 3 5
ORIGIN 0.5 0.833333 0.34
SPACING 1 1.66667 0.68
POINT_DATA 75
SCALARS RHO float 
LOOKUP_TABLE default 
0.36536 0.34007 0.451749 0.355935 0.471519 0.3722 0.277728 0.377696 0.363223 0.369504 0.316845 0.291074 0.33386 0.401641 0.517569 0.450108 0.625573 0.617189 0.537251 0.297031 0.438051 0.642329 0.627047 0.635091 0.627923 0.374281 0.576533 0.581598 0.598104 0.547203 0.479447 0.641686 0.62721 0.431455 0.46353 0.505275 0.703564 0.671799 0.643243 0.622883 0.463593 0.569529 0.527413 0.537572 0.462195 0.439221 0.610765 0.600824 0.541015 0.623664 0.507916 0.567996 0.629414 0.650309 0.5971 0.540254 0.608085 0.572913 0.461024 0.436558 0.345178 0.420061 0.341714 0.440234 0.337193 0.392786 0.572963 0.561544 0.511061 0.528645 0.484256 0.543725 0.586887 0.411289 0.392826 

VECTORS VAVG float 
5.01754e-06 0.000129112 6.93189e-05 -0.0024545 0.0277712 0.0378047 0.0114764 0.0699352 0.0125848 0.0343768 0.177889 -0.0240864 0.0551142 0.277687 -0.0513966 0.000516497 0.00058361 0.000186952 0.010358 0.0194369 0.0121089 0.0102832 0.0673695 0.00920399 0.0156148 0.161221 0.0220327 -0.0483145 0.229494 0.0474149 2.50819e-05 0.0001593 0.000144366 -0.0123036 0.028265 -0.00808855 -0.0280646 0.1038 -0.0304145 -0.0242959 0.238031 -0.0574626 -0.0551666 0.240994 -0.0131701 -0.000202699 0.00186756 0.00171099 0.000224718 0.0238634 0.0197207 0.0119653 0.068814 -0.0184399 0.0233078 0.120155 -0.0256008 0.042299 0.271866 -0.0324366 0.00324558 0.0036664 0.00117712 0.0122437 0.0156104 0.00596067 0.0145643 0.0581369 -0.00452317 0.00769088 0.1783 -0.00852652 0.0208693 0.286839 -0.00729977 4.49052e-05 0.00285545 0.00308763 -0.00702132 0.0272024 0.0052783 -0.0385316 0.117065 -0.0309338 -0.0825405 0.215394 -0.0601466 -0.0482957 0.232599 -0.0246031 0.000222955 0.000735245 5.25649e-05 0.00768705 0.0275841 -0.00110317 0.025221 0.0757263 -0.0193348 0.0299434 0.107902 -0.0145956 -0.0290929 0.205664 -0.0220164 0.00145898 0.00169351 0.000337014 0.00990752 0.00893067 -0.00051039 0.0157741 0.0576804 -0.0217329 -0.012618 0.184154 -0.0566873 0.00350211 0.31515 -0.0360538 -0.000182281 0.00140779 0.00205851 -0.0075116 0.0195825 0.00686314 -0.0424616 0.0842557 -0.0286652 -0.0967848 0.101157 -0.0727642 -0.0532541 0.213255 -0.0386116 0.000465982 0.000608508 -0.00053175 0.00865437 0.0213946 -0.011678 0.0318357 0.0631354 -0.0149283 0.0223551 0.141888 -0.0341783 0.0031243 0.196414 -0.0118456 0.000603089 0.000799534 -0.000139419 -0.00402925 0.00889983 0.00795389 -0.00291568 0.0575211 -0.0148273 -0.00140795 0.164656 -0.0388706 -0.0205455 0.32552 -0.03828 -0.000635993 0.000526984 -0.000283043 -0.0186718 0.0338203 -0.0330007 -0.0518199 0.0736806 -0.0437393 -0.177026 0.142279 -0.0653823 -0.0038562 0.22176 -0.0807776 0.000774694 0.000882266 -9.42372e-07 0.0153173 0.0310957 -0.00592853 0.0242513 0.0607459 -0.0199506 0.000823724 0.187838 -0.0378407 0.00833415 0.218192 -0.0155266 -0.00105396 0.00297443 0.00235693 -0.0128466 0.0323482 0.0263505 -0.0264102 0.054284 0.0219103 -0.0143917 0.132359 -0.00617641 -0.00971545 0.302313 -0.03062 -0.0029744 0.0061743 -0.0106666 -0.0299438 0.0732674 -0.1097 -0.0227562 0.061204 -0.0419975 -0.0675677 0.12235 -0.0457138 -0.000989248 0.176727 -0.118429 

