# vtk DataFile Version 2.0
Some data
ASCII
DATASET STRUCTURED_POINTS
DIMENSIONS 5 3 5
ORIGIN 0.5 0.833333 0.34
SPACING 1 1.66667 0.68
POINT_DATA 75
SCALARS RHO float 
LOOKUP_TABLE default 
0.370384 0.294474 0.550713 0.562692 0.548483 0.361708 0.358307 0.423269 0.308276 0.420192 0.323732 0.204453 0.412183 0.55763 0.503743 0.441917 0.559286 0.578702 0.610411 0.599069 0.349999 0.619952 0.42316 0.582828 0.633691 0.38123 0.573946 0.555649 0.440229 0.574219 0.448781 0.641989 0.624731 0.627725 0.599215 0.432188 0.608588 0.345975 0.525827 0.591707 0.449071 0.642129 0.627521 0.392403 0.604405 0.380384 0.399721 0.47456 0.587546 0.584797 0.438734 0.473886 0.480381 0.501926 0.581278 0.38068 0.436961 0.613136 0.494204 0.548701 0.325913 0.422705 0.484541 0.50489 0.265875 0.372968 0.484985 0.515512 0.541745 0.490697 0.378591 0.468563 0.492635 0.391002 0.357166 

VECTORS VAVG float 
-0.000309708 0.00020509 0.000353506 -0.0093701 0.00602126 0.0132449 -0.0056876 0.00927514 0.0167477 -0.0031328 0.00476282 0.0139532 -0.00727362 0.004607 0.0139117 -9.74963e-05 8.55649e-05 0.000164203 -0.00577936 0.00385857 0.0087352 -0.00752592 0.00124963 0.0129946 -0.00308981 -0.00064144 0.0119818 -0.00488725 0.00104265 0.00481166 0.000328253 0.000547319 0.00069335 0.00620863 0.0112855 0.0149532 -0.00210083 0.00511619 0.0114627 -0.0144425 0.00678937 0.0104649 -0.0150274 0.00364122 0.00789694 -0.00169539 0.0011227 0.00193515 -0.010534 0.00791794 0.0126304 -0.00659938 0.0078741 0.0108225 -0.00524935 0.00239141 0.0151478 -0.00850912 0.00271866 0.0154294 -0.000504316 0.000474818 0.000880769 -0.0043126 0.00615259 0.00974615 -0.00802022 0.00717009 0.0225936 -0.00394547 0.00185626 0.0149157 -0.00452737 0.000602469 0.0063093 0.000124576 0.00210567 0.005781 0.00361365 0.0115493 0.0167321 -0.00323606 0.00409512 0.0122573 -0.00832931 0.00359838 0.0104365 -0.00995983 0.00298685 0.00939783 -0.000351738 0.000408407 0.000606842 -0.00466944 0.00890098 0.0110922 -0.010071 0.00469586 0.00795019 -0.0114098 0.000501291 0.0147812 -0.0115475 0.00485577 0.014196 0.000132956 0.000475588 0.000464354 0.00114712 0.00850776 0.00967742 -0.00324972 0.00750272 0.0198176 -0.00425306 0.00105362 0.0109054 -0.00492373 0.00305821 0.00701161 -0.0050536 -5.78173e-05 0.0215349 -0.00384874 0.00532217 0.0285176 -0.0038114 0.00584488 0.0108779 -0.00465389 0.0030675 0.00846354 -0.0070101 0.00245399 0.0115656 -1.69833e-05 6.15808e-05 8.08086e-05 -0.00203863 0.00781418 0.0123909 -0.00982679 0.00282834 0.0143277 -0.0126301 0.00200224 0.0151897 -0.0165897 0.00965252 0.00954292 6.86532e-05 2.89416e-06 4.36578e-05 -0.00231086 0.00619189 0.0106261 -0.00429151 0.00795968 0.0162573 -0.00560775 0.00279603 0.00982855 -0.00803504 0.0143791 0.00839977 -0.00221454 -0.000196348 0.00917268 -0.00442709 0.00379611 0.0208454 -0.00634726 0.00898603 0.0117641 -0.00674423 0.00726633 0.00597159 -0.00925631 0.000463671 0.00785652 -0.000315013 0.000467001 0.000713676 -0.00419514 0.00717008 0.0158645 -0.00274702 0.00261695 0.0185429 -0.00561988 0.00406213 0.0173801 -0.0110587 0.00802122 0.0110652 -0.000399168 0.000411281 -8.51524e-06 -0.0105261 0.00661909 0.00996193 -0.0116286 0.0143626 0.00573767 -0.00764224 0.00349157 0.00966788 -0.00807117 0.0102369 0.0115129 -0.00150992 0.00289829 0.000450424 -0.00636148 0.0101067 0.00528715 -0.00724698 0.00918547 0.0141974 -0.00599726 0.00778613 0.00452266 -0.0100655 -0.000871582 0.00642053 

