# vtk DataFile Version 2.0
Some data
ASCII
DATASET STRUCTURED_POINTS
DIMENSIONS 5 3 5
ORIGIN 0.5 0.833333 0.34
SPACING 1 1.66667 0.68
POINT_DATA 75
SCALARS RHO float 
LOOKUP_TABLE default 
0.376331 0.433603 0.500274 0.554376 0.356424 0.422203 0.491082 0.386465 0.353685 0.370339 0.35955 0.333372 0.496745 0.595053 0.526504 0.394283 0.580523 0.514101 0.510131 0.422423 0.383474 0.606656 0.609286 0.554756 0.613411 0.549915 0.426669 0.61588 0.609839 0.496831 0.464672 0.547278 0.610917 0.515039 0.522999 0.448434 0.631884 0.630696 0.538524 0.511105 0.5159 0.395698 0.621788 0.6621 0.548831 0.447239 0.584735 0.584055 0.525603 0.636299 0.460011 0.523344 0.607062 0.636733 0.453777 0.526694 0.594388 0.650505 0.559212 0.572891 0.329265 0.571475 0.284829 0.368361 0.52996 0.368698 0.337774 0.482145 0.554952 0.594849 0.525342 0.554848 0.509328 0.342974 0.425812 

VECTORS VAVG float 
0.000113769 -0.000464058 0.00158006 0.00150399 0.00165108 0.0339642 -0.00245178 0.110387 0.010164 0.00468841 0.188778 -0.0088285 -0.0377728 0.256229 -0.0640806 0.0052775 0.00708416 -0.0014847 0.0214669 0.0595222 0.00667585 0.0064309 0.117344 0.0449452 -0.0212898 0.145799 0.0265376 -0.193549 0.267767 -0.0405403 -0.000171037 -0.00140901 -0.0018045 0.00258277 0.0082349 -0.022252 -0.00359064 0.0950619 -0.00211662 -0.0295007 0.21419 0.0184459 -0.0274678 0.208823 -0.0148348 9.6932e-05 -0.000143137 0.000893313 0.00483906 0.0160982 0.00829021 0.0143855 0.0874898 -0.00685551 0.029916 0.181207 -0.0018644 0.0355383 0.246731 -0.0402503 0.00146769 0.00102897 -0.000845875 0.00860667 0.0239296 0.00177301 0.00825649 0.0705109 0.0198681 0.00822427 0.127486 0.0411083 -0.0867015 0.236626 -0.0112671 -0.000347324 -0.005046 -0.00489685 -0.00352788 -0.000317071 -0.01704 -0.0148481 0.0746206 -0.018197 -0.0188118 0.209136 0.0106148 -0.00418725 0.264752 0.00970918 -0.000287913 0.00510183 -0.00369115 0.000929151 0.0514758 -0.0351579 -0.0158336 0.0834939 -0.0509344 0.0160111 0.110151 -0.00522744 0.0555396 0.165335 -0.021432 -2.32102e-05 0.00175678 -0.000231024 0.00144089 0.023432 -0.00517744 0.0136106 0.0547881 -0.0044861 0.0468637 0.1107 0.0376518 0.0497061 0.226479 0.028693 0.00228795 -0.00158853 -0.00280497 0.0224332 0.0248688 -0.0212905 -0.0126245 0.0625182 -0.0343659 -0.0154495 0.200037 -0.0184682 0.00214566 0.324682 -0.00990709 -0.000690195 0.0104024 -0.00730767 -0.0101051 0.0530982 -0.031235 -0.0293758 0.0700985 -0.0394056 0.0113871 0.143427 -0.0119468 0.0464772 0.18045 -0.0131358 -0.000743107 0.00249191 0.000137893 0.00611677 0.0522603 -0.00493044 0.0216148 0.0845887 -0.0235687 0.0381894 0.104053 0.0187564 0.0271306 0.240972 -0.00843127 0.00544541 0.00191433 -0.00143297 0.0336523 0.0388875 -0.0249306 0.000639816 0.0811042 -0.0332522 -0.0035157 0.172436 -0.0281507 -0.0101864 0.305051 -0.0420267 -0.000283885 0.00203483 -0.000514474 -0.0157314 0.0344003 -0.00810238 -0.0084017 0.0745166 -2.49432e-05 0.0308032 0.187774 -0.0103018 0.0455127 0.209791 -0.00189493 -0.000344623 0.000765942 9.61782e-05 0.0187618 0.0831439 -0.0031779 0.0152608 0.109583 -0.0106053 -0.0137483 0.11059 0.00142013 -0.0070254 0.228871 -0.0566571 0.00377606 0.00269316 -0.0054259 0.0241188 0.0305118 -0.0343281 0.00960871 0.105917 -0.038761 0.00428829 0.17845 -0.0381939 0.000422597 0.327065 -0.0385899 

