# vtk DataFile Version 2.0
Some data
ASCII
DATASET STRUCTURED_POINTS
DIMENSIONS 5 3 5
ORIGIN 0.5 0.833333 0.34
SPACING 1 1.66667 0.68
POINT_DATA 75
SCALARS RHO float 
LOOKUP_TABLE default 
0.368341 0.380639 0.43079 0.499845 0.305162 0.367397 0.280283 0.514139 0.446014 0.358087 0.319515 0.356209 0.532096 0.373348 0.59047 0.434254 0.595691 0.533553 0.669707 0.574384 0.416617 0.638349 0.604857 0.61933 0.522964 0.363476 0.558765 0.592225 0.561754 0.609937 0.453143 0.554884 0.48055 0.61431 0.557351 0.474253 0.659083 0.617711 0.619671 0.503545 0.476195 0.609544 0.525431 0.485247 0.445221 0.410088 0.480849 0.404929 0.542292 0.434537 0.481925 0.603973 0.623822 0.547441 0.573259 0.539581 0.583888 0.604754 0.61216 0.481246 0.315573 0.18845 0.371066 0.412552 0.411083 0.375492 0.524729 0.412376 0.335365 0.51995 0.464388 0.356078 0.541373 0.507718 0.320841 

VECTORS VAVG float 
0.000141501 0.000820388 6.78658e-05 0.00517706 0.0287616 -0.00516272 0.00180864 0.0858538 -0.0050622 -0.00614096 0.153924 0.0173901 -0.023927 0.155808 0.0341151 7.84217e-05 0.000131923 3.89666e-06 -0.00350006 0.0243896 -0.0158565 -0.0284174 0.105486 0.000814123 -0.0255248 0.146209 0.0150461 -0.018136 0.146928 0.0296948 2.07903e-05 0.000779798 -0.000215191 0.00095027 0.0413101 -0.0113383 0.0136462 0.131915 -0.0119991 -0.0079756 0.150485 0.00354494 -0.0260249 0.142991 0.0298194 0.000165859 0.000562155 -5.07228e-05 0.000952345 0.0128579 -0.00236818 -0.00450357 0.0744022 -0.000601593 0.00316114 0.150194 0.0246392 -0.0248226 0.156386 0.0364987 0.000557728 0.00105742 -8.46627e-06 -0.0036458 0.0215167 -0.0103385 -0.0132746 0.0906758 -0.00749929 -0.0148095 0.139543 0.0101708 -0.0194181 0.138833 0.0290378 -0.000524276 0.00146527 0.00125067 -0.00339859 0.0290816 -0.00241351 -0.000923989 0.0963706 0.00247632 0.00500736 0.144708 0.00226007 -0.0171378 0.131626 0.0261474 3.10369e-05 0.00094932 -9.87827e-05 -0.00551155 0.0214558 -0.00150766 -0.00947447 0.07644 0.00248558 0.00264401 0.139914 0.0224955 -0.0130668 0.17242 0.0367194 0.00103315 0.00227913 0.000101613 0.000847258 0.0326459 -0.00489808 -0.00967603 0.0946654 -0.00210793 -0.0155303 0.137284 0.0125703 -0.0118925 0.137583 0.0237097 0.000203226 0.000782511 0.00143982 -0.00659516 0.0122882 0.00295692 -0.0143633 0.0684422 0.0142164 -0.000375994 0.139188 0.00060774 -0.00793268 0.140074 0.0271895 0.000159069 0.00226942 -0.000255789 -0.00656136 0.0307305 -0.00323249 0.00383388 0.110165 0.00416115 -0.00140855 0.138382 0.0182263 -0.0163569 0.187895 0.0402884 0.00171982 0.00343143 0.000317915 -0.0275131 0.0603501 -0.00563333 -0.0125642 0.103418 0.00911493 -0.00840841 0.137201 0.0210378 -0.00574911 0.14099 0.0234744 0.00126486 -0.00044485 0.000621064 -0.00473884 0.0205371 0.000565549 -0.000826565 0.0801968 0.0135455 -0.00183299 0.129539 0.0114284 -0.00628426 0.156898 0.0216249 -2.05833e-05 -8.26431e-05 -8.50576e-05 -0.00209824 0.027832 -0.00961124 0.0115804 0.113535 0.00429487 -0.00175087 0.143837 0.0236644 -0.0217972 0.160366 0.0385544 -0.0072038 0.0105187 -0.000771058 -0.202966 0.200318 -0.047063 -0.0794058 0.16018 -0.0110925 -0.00630699 0.166717 0.0260669 -0.00651154 0.154643 0.0183596 -0.000267403 -0.00107771 0.00216546 -0.0193498 0.110117 -0.0067716 0.00234241 0.117806 -0.0016326 0.0196052 0.141962 0.0159522 -0.0107868 0.157073 0.0189079 

