# vtk DataFile Version 2.0
Some data
ASCII
DATASET STRUCTURED_POINTS
DIMENSIONS 5 3 5
ORIGIN 0.5 0.833333 0.34
SPACING 1 1.66667 0.68
POINT_DATA 75
SCALARS RHO float 
LOOKUP_TABLE default 
0.374744 0.383217 0.301462 0.387433 0.508683 0.37394 0.240363 0.427461 0.233527 0.322396 0.368321 0.416529 0.48934 0.461013 0.48051 0.444681 0.519128 0.596937 0.602896 0.453429 0.455485 0.507195 0.616999 0.552655 0.591978 0.569033 0.573041 0.578441 0.609719 0.639756 0.467694 0.487951 0.603429 0.619232 0.489092 0.488528 0.565117 0.576739 0.603107 0.582905 0.560391 0.586468 0.51716 0.632569 0.575899 0.42722 0.518012 0.400004 0.587002 0.538017 0.477389 0.586637 0.580195 0.513197 0.592148 0.542892 0.626299 0.534947 0.638136 0.549336 0.316061 0.400364 0.471992 0.577626 0.30775 0.407619 0.599588 0.545827 0.457557 0.469048 0.500025 0.539893 0.391142 0.553119 0.454289 

VECTORS VAVG float 
0.000747379 0.0014229 0.000332903 0.0199991 0.0404082 0.0117343 -0.0380077 0.166386 0.0582038 -0.0144668 0.195586 0.0899401 -0.177324 0.161953 0.0237166 0.0013186 0.00123011 2.5531e-05 0.039789 0.0890919 -0.040127 0.0282699 0.156051 -0.0517695 -0.0184266 0.210034 -0.0129002 0.00527912 0.251956 -0.0277258 0.000690585 0.00123629 -0.000967387 0.0207509 0.0662662 -0.0309237 0.0373597 0.162742 -0.0531069 0.0248808 0.232031 -0.0211958 0.0204048 0.297925 -0.0492416 0.00410698 0.00369492 0.00296746 0.0222383 0.0408433 0.0209418 -0.0443135 0.166508 0.0546274 -0.0476538 0.223834 0.0587815 -0.0415102 0.245557 0.126094 0.00766954 0.00663804 0.000594874 0.017928 0.0693008 -0.0259544 0.000776448 0.181729 -0.0517856 0.000268923 0.220894 -0.0203448 0.0115875 0.290293 -0.0360275 0.00135743 0.000743922 -0.00104606 0.012967 0.0360109 -0.0211175 0.00166528 0.192779 -0.0451196 0.0137708 0.246911 -0.0278638 0.0425143 0.325004 -0.0461118 0.000980563 0.0010764 0.00103602 -0.00243805 0.0310772 0.0211764 -0.0484342 0.161316 0.0444721 -0.0704933 0.227404 0.0129954 -0.0316037 0.270309 0.0682993 0.00635493 0.00789768 -0.000996088 0.0224748 0.0929588 -0.0318787 -0.00609327 0.196076 -0.0581142 0.0230905 0.233479 -0.0281891 0.00155329 0.305896 -0.02553 -0.002589 0.00044653 -0.000748068 0.00636687 0.0178411 -0.0166897 0.000845703 0.177399 -0.0380428 0.0237422 0.273599 -0.0623343 0.0311125 0.335005 -0.0447892 -0.00041412 0.000136714 0.000550332 -0.0109345 0.00731537 0.0135636 -0.0589978 0.16937 0.020553 -0.0900805 0.2347 0.011791 -0.0518564 0.250059 0.0213842 0.00604363 0.00899702 -0.00180548 0.043669 0.0690656 -0.00842302 0.026916 0.16408 -0.0271571 0.0377417 0.241508 -0.0396544 0.0363597 0.280906 -0.0482121 -0.00442698 0.00147809 -0.000648316 0.00401483 0.022732 -0.015196 0.0158633 0.128236 -0.0421444 -0.00445465 0.279933 -0.0579437 -0.00830064 0.334257 -0.0324921 -0.000107894 0.000121963 2.58808e-05 -0.022769 0.0255579 0.00571999 -0.124371 0.134526 -0.0128049 -0.180468 0.270083 0.0275216 -0.107972 0.279315 0.0363574 0.00225054 0.00639279 -0.000630797 0.0262245 0.0516373 -0.000459639 0.0819931 0.14431 -0.0181945 0.0656092 0.247024 -0.0342597 0.0422179 0.277099 -0.0313196 0.00190481 -0.00232086 0.00374308 0.0158036 0.0377047 -0.0280712 0.0111421 0.111659 -0.0203269 -0.0206112 0.240369 -0.017669 -0.0444663 0.303609 -0.011704 

