# vtk DataFile Version 2.0
Some data
ASCII
DATASET STRUCTURED_POINTS
DIMENSIONS 5 3 5
ORIGIN 0.5 0.833333 0.34
SPACING 1 1.66667 0.68
POINT_DATA 75
SCALARS RHO float 
LOOKUP_TABLE default 
0.370951 0.333574 0.556043 0.583905 0.217032 0.361076 0.385364 0.46479 0.36331 0.440093 0.324661 0.237081 0.431527 0.518885 0.533127 0.425852 0.585519 0.564519 0.588475 0.57374 0.340202 0.60338 0.371121 0.569829 0.630929 0.383034 0.607767 0.547369 0.401118 0.571197 0.441072 0.62542 0.606826 0.638966 0.592892 0.433632 0.593682 0.37122 0.506393 0.573137 0.437251 0.621734 0.626778 0.391557 0.590618 0.378822 0.398663 0.46548 0.564756 0.600826 0.437509 0.440891 0.506464 0.471034 0.565357 0.361106 0.384756 0.588579 0.515054 0.541523 0.321314 0.402847 0.440999 0.458211 0.564285 0.372958 0.418227 0.518272 0.517526 0.498953 0.369938 0.470459 0.485312 0.356308 0.324176 

VECTORS VAVG float 
-0.000315071 0.000211725 0.000491765 -0.00837077 0.00712189 0.0185411 -0.0052953 0.00809246 0.0179554 -0.00448872 0.00796383 0.0201881 -0.00592605 0.00663193 0.0187472 -0.000100382 6.56017e-05 0.000255707 -0.00718628 0.00257219 0.0182244 -0.0088154 0.0022179 0.0157687 -0.0121839 0.00420149 0.0165675 -0.0142164 0.00241386 0.00740427 -0.000153543 -2.85922e-05 0.000215336 -0.00729711 0.00108114 0.010912 -0.0105228 0.00378934 0.0180447 -0.0153476 0.00706988 0.0159329 -0.0176275 0.00606611 0.00947845 -0.00122633 0.000824085 0.00191406 -0.00971195 0.0072005 0.0172736 -0.00718864 0.00731287 0.0117287 -0.00739526 0.00348302 0.0196102 -0.0087274 0.00404836 0.0186039 -0.000342017 0.000257022 0.00105123 -0.00519596 0.00324602 0.0211678 -0.00734506 0.00365839 0.016233 -0.00905794 0.00421748 0.0172408 -0.0124189 0.00233374 0.00901841 -0.0013913 -9.79383e-05 0.000599493 -0.00838142 0.00224595 0.0124788 -0.00782103 0.00422158 0.0168795 -0.0102029 0.00297196 0.012778 -0.012252 0.00374598 0.00876538 -0.0001287 0.000108823 0.000475385 -0.00393629 0.003764 0.0155803 -0.0103372 0.00743519 0.0112775 -0.0121449 0.00325406 0.0186919 -0.0127214 0.0054535 0.0155516 9.04512e-05 0.000146191 0.00122618 0.000878382 0.00244944 0.02136 0.00279893 0.000567591 0.0193484 -0.000466579 0.00349593 0.0215052 -0.0110935 0.00444508 0.00927308 -0.000683365 -0.000995898 -0.00396901 -0.00534891 0.00489406 0.00658902 -0.00880103 0.00905748 0.0116884 -0.0107203 0.00562706 0.00815306 -0.00997022 0.00261352 0.0118933 -3.85577e-06 5.45951e-06 3.00805e-05 -0.00133459 0.00601695 0.0167283 -0.010073 0.00696318 0.0164375 -0.0123097 0.00462031 0.0191036 -0.0155434 0.00848395 0.0120731 4.07326e-06 4.92695e-06 5.98883e-05 -0.0104668 0.00989408 0.0210585 -0.00656196 -0.000576222 0.0286235 -0.00926297 0.00338318 0.0167902 -0.0138487 0.0110024 0.0104205 -0.000123941 -0.000261048 -0.00105486 -0.00417786 0.00664549 0.00923326 -0.0106254 0.0147504 0.0151676 -0.0155547 0.0166827 0.0125202 -0.0173044 0.00624419 0.01105 -0.000119854 6.8936e-05 0.000297797 -0.00253898 0.00724558 0.0159268 -0.00475588 0.00633351 0.0188476 -0.00534048 0.00519294 0.0194601 -0.0077317 0.00916843 0.0182046 2.72135e-07 1.4478e-06 -7.04181e-06 -0.0240774 0.0185893 0.0219018 -0.0203447 -0.00370531 0.0454045 -0.0165413 -6.36888e-05 0.0183994 -0.0169026 0.00818677 0.0120766 -9.60924e-06 1.75031e-05 -2.49648e-05 -2.43443e-06 0.00338658 0.00609791 -0.00281441 0.0165215 0.023945 -0.0150949 0.0188967 0.0137856 -0.0192169 0.00715263 0.0103792 

