# vtk DataFile Version 2.0
Some data
ASCII
DATASET STRUCTURED_POINTS
DIMENSIONS 5 3 5
ORIGIN 0.5 0.833333 0.34
SPACING 1 1.66667 0.68
POINT_DATA 75
SCALARS RHO float 
LOOKUP_TABLE default 
0.367468 0.270713 0.603348 0.551148 0.306498 0.374544 0.300081 0.427352 0.386658 0.606894 0.314541 0.266789 0.450106 0.579186 0.576521 0.450407 0.568758 0.669673 0.673044 0.593454 0.447919 0.508428 0.566405 0.608519 0.603355 0.349036 0.532556 0.56621 0.571809 0.563251 0.488523 0.535656 0.672724 0.583231 0.587648 0.487697 0.627943 0.604982 0.564158 0.636307 0.447713 0.611877 0.571703 0.621948 0.610158 0.437532 0.550323 0.569338 0.569524 0.568436 0.461957 0.517133 0.587519 0.626565 0.616995 0.533106 0.581268 0.586875 0.550332 0.476496 0.388664 0.553202 0.297876 0.477241 0.499906 0.390902 0.530849 0.506201 0.496664 0.27156 0.520324 0.437532 0.421497 0.30635 0.185343 

VECTORS VAVG float 
0.000231698 0.000424683 -5.26507e-05 0.0397414 0.106357 -0.00699972 0.0359298 0.18523 -0.0348818 0.0210354 0.205155 -0.0223446 0.0116075 0.311019 -0.0100173 0.000241026 0.000186154 0.000384263 0.0567507 0.106277 -0.042952 0.0949667 0.180918 -0.0672608 -0.0109889 0.257172 0.0712287 -0.00507183 0.309359 0.0822709 5.0925e-05 5.58383e-05 -0.000137447 -0.0693429 0.1177 -0.0574254 -0.0624821 0.174846 -0.0534759 -0.013704 0.233238 0.0159643 -0.00445391 0.257653 0.00874479 0.00220355 0.00405765 -0.000523082 0.025435 0.0848716 -0.00628261 0.0454457 0.184628 -0.0224949 0.0475838 0.19359 -0.0159511 0.0390185 0.291066 -0.013307 0.00139315 0.00109509 0.00225635 0.00144763 0.0626305 -0.0218124 -4.03955e-05 0.194494 -0.0167257 -0.00568835 0.243641 0.0577817 0.00311471 0.316002 0.0694573 -0.00441288 0.0133462 0.0017495 -0.0480682 0.11485 -0.017607 -0.051211 0.23222 -0.0584101 -0.0447841 0.241081 0.0270412 0.0130758 0.309902 -0.00654227 -0.0160258 0.0208488 0.0156137 -0.079105 0.164739 0.0684308 0.0274053 0.187518 -0.0392542 0.0570988 0.192738 -0.017714 0.00820395 0.259664 0.0153761 -0.00817599 0.012503 0.00440916 -0.0697118 0.121561 0.00013927 -0.0512622 0.19677 0.00689651 -0.00771814 0.239098 0.0348961 -0.00730132 0.320849 0.0482574 -0.00162628 0.0103138 0.00131018 -0.0178977 0.106089 -0.0113633 0.00168743 0.245785 -0.0779577 -0.0790324 0.199822 0.0230373 -0.0340445 0.342503 0.00757306 -0.0277778 0.0331844 0.02581 -0.159354 0.220386 0.126783 0.000989539 0.186163 -0.0209272 0.0549351 0.201357 -0.00468911 0.0120431 0.250546 0.0226679 -0.0128168 0.017352 0.0063091 -0.111921 0.201973 0.0464656 0.02528 0.177329 -0.0186484 -0.0152888 0.238949 0.0245634 -0.0195911 0.299338 0.0409312 0.00213599 0.00452459 -0.000367825 -0.00943382 0.105995 -0.0335549 -0.0138363 0.179823 -0.101545 -0.0236976 0.189453 -0.00435233 -0.0130072 0.340247 -0.00583557 -0.066464 0.0719657 -0.0191078 -0.22335 0.276402 -0.0125162 -0.0509045 0.184965 -0.00245712 0.0501577 0.19392 -0.00273167 0.0650336 0.241769 0.0100508 -0.016714 0.0238122 0.00756864 -0.176701 0.273656 0.0923181 0.113366 0.181558 -0.0603322 0.0132618 0.236925 0.00198393 -0.0416406 0.313373 0.0445686 -0.00776066 0.0569361 -0.00231462 -0.070039 0.301185 0.00668313 -0.0268898 0.212427 -0.0786828 0.0091132 0.194752 -0.0198237 -0.0084395 0.314993 0.0202742 

