# vtk DataFile Version 2.0
Some data
ASCII
DATASET STRUCTURED_POINTS
DIMENSIONS 5 3 5
ORIGIN 0.5 0.833333 0.34
SPACING 1 1.66667 0.68
POINT_DATA 75
SCALARS RHO float 
LOOKUP_TABLE default 
0.362991 0.343474 0.486898 0.604044 0.407155 0.362792 0.298289 0.583799 0.596521 0.411556 0.377422 0.421448 0.387228 0.368229 0.387817 0.422454 0.586151 0.471857 0.627943 0.57118 0.386165 0.582295 0.646598 0.512235 0.546644 0.521746 0.42081 0.487311 0.613013 0.672662 0.452897 0.632363 0.432628 0.481749 0.51951 0.44435 0.630591 0.600012 0.602929 0.598888 0.529088 0.537922 0.502649 0.578195 0.628897 0.403758 0.5538 0.501498 0.532346 0.583125 0.455131 0.588069 0.49639 0.633595 0.585068 0.5234 0.580023 0.509251 0.621124 0.611933 0.316916 0.280244 0.34282 0.369962 0.436248 0.369885 0.52142 0.500494 0.44945 0.436795 0.482993 0.44527 0.576701 0.494142 0.553474 

VECTORS VAVG float 
-7.10388e-06 0.000190242 3.73344e-06 0.00326618 0.0708886 0.00373451 0.000715509 0.101417 -0.00247724 -0.0105779 0.113312 0.000644509 0.00470003 0.143132 0.024087 0.000179455 0.000682922 1.33055e-05 0.00514451 0.0622514 -0.00683307 0.00475067 0.0992658 -0.011665 -0.0021385 0.113301 -0.000562014 -0.0187175 0.156801 0.0189472 -0.00182717 0.0296788 0.00414651 0.152416 0.205538 0.100971 -0.00732739 0.117708 0.0066896 -0.0132049 0.107396 0.00371101 0.00829976 0.144961 0.00740849 -8.1612e-05 0.00368266 1.46722e-05 -0.000803839 0.0444 0.00316774 0.00301886 0.0819492 0.00283531 0.00467558 0.113758 -0.00069031 0.0124415 0.140427 0.0131539 0.00215342 0.00645427 9.5761e-05 0.00905929 0.0480908 -0.00173379 -0.00198703 0.0857703 -0.00765214 -0.000457409 0.105549 0.00162603 -0.00262835 0.160898 0.0220655 -0.124686 0.0338917 -0.0553909 0.0251511 0.109107 0.0150435 -0.00400828 0.0853722 0.0048856 -0.00902238 0.109126 0.00152032 0.00772706 0.149226 0.00533145 -0.000464609 0.00263809 0.000183889 -0.00774193 0.0441936 0.00657447 -0.00732887 0.0584971 0.0101707 0.00420159 0.109215 -0.00563173 0.00931799 0.137026 0.00432089 0.00125043 0.00361076 -0.000755804 0.00957703 0.0483166 -0.00998096 -0.00598648 0.0711396 -0.00589521 0.00711357 0.106835 0.00692271 0.0206516 0.147404 0.0414234 -0.0682254 0.0161092 -0.0307358 -0.0128042 0.027984 -0.0111073 -0.000232925 0.065729 0.00289542 -0.00306288 0.1143 -0.0067717 -0.0185455 0.161224 0.000727266 -0.00085273 0.00362089 0.000346495 -0.00690031 0.0583613 0.00346433 -0.00113077 0.0837298 -0.0083605 -0.00318885 0.106773 -0.0110583 -0.0050438 0.138155 -0.00262096 0.0012168 0.0035495 -0.00147853 0.0123285 0.0522161 -0.0181901 0.0109325 0.0748293 0.0211433 0.00525373 0.114888 0.00678666 0.0269312 0.139355 0.049044 -0.000188774 -0.000495424 -0.000816605 -0.00306943 0.0250938 -0.00212764 -0.00535879 0.0779637 -0.000273775 0.00169783 0.121028 -0.0108739 -0.0169509 0.156093 0.000941011 0.000207118 0.000657549 0.000103416 0.0100261 0.0638088 0.00472001 0.00176081 0.0865717 -0.010742 -0.000254661 0.110581 -0.00373454 -0.00104294 0.133448 0.0068491 -0.000104343 0.00132335 -0.000539402 0.000218275 0.0484164 -0.0158634 0.0194517 0.0670724 0.0404165 0.00323372 0.115909 0.0052248 -0.00268982 0.159474 0.0344736 0.0228968 -0.0218577 -0.00410903 0.00341946 0.0488283 0.00499229 0.00301301 0.0783111 -0.00291334 -0.00887731 0.120614 -0.00707112 -0.0338326 0.168815 -0.000218909 

