# vtk DataFile Version 2.0
Some data
ASCII
DATASET STRUCTURED_POINTS
DIMENSIONS 5 3 5
ORIGIN 0.5 0.833333 0.34
SPACING 1 1.66667 0.68
POINT_DATA 75
SCALARS RHO float 
LOOKUP_TABLE default 
0.37047 0.276799 0.522773 0.517376 0.556413 0.362512 0.342874 0.378175 0.302824 0.553239 0.318678 0.257105 0.660675 0.575171 0.528936 0.473662 0.514037 0.626579 0.627757 0.595291 0.365009 0.623986 0.51459 0.592993 0.645603 0.358621 0.531236 0.58269 0.459291 0.609499 0.475048 0.633798 0.627637 0.60593 0.59238 0.426055 0.6109 0.37418 0.541416 0.602601 0.417867 0.537635 0.611921 0.407039 0.621247 0.38616 0.426537 0.499269 0.608775 0.59152 0.434814 0.494038 0.499645 0.539995 0.602912 0.507846 0.470345 0.63004 0.507766 0.573127 0.335331 0.449871 0.516851 0.556244 0.307833 0.367732 0.500994 0.498203 0.547671 0.357739 0.426522 0.371614 0.291548 0.411054 0.379609 

VECTORS VAVG float 
-0.00120551 0.00152737 8.59386e-05 -0.0180323 0.054246 0.000898692 0.000637494 0.0862425 0.000856661 0.00465023 0.110106 -0.00173777 0.00882918 0.151047 -0.00718438 -0.000280177 0.000689071 -7.08654e-05 -0.00149943 0.0400123 -0.0121057 0.00390451 0.0514023 -0.00577862 -0.00194506 0.11083 -0.00629539 -0.00394954 0.128073 0.00251202 0.000411618 0.000545302 -2.43344e-05 0.00769632 0.0523361 -0.00199628 0.00656714 0.0762661 -0.00305633 0.0011314 0.101167 -0.00491824 -0.0160482 0.130999 0.0099297 -0.00938888 0.0118956 0.000669314 -0.0310908 0.0628024 -0.000339711 0.00995345 0.0920085 -0.00502357 0.00289609 0.111456 0.000315509 0.00516453 0.137302 0.00520208 -0.00198941 0.00491063 -0.000508732 -0.00156811 0.0437757 -0.0135775 0.000868092 0.0648491 0.00186621 -0.000895935 0.104252 -0.00505714 0.000371075 0.13313 0.000678448 0.000637347 0.00511841 -4.52853e-05 0.00352731 0.038349 -0.00246627 0.00869397 0.0662272 -0.0105954 0.0102188 0.096221 -0.000701845 -0.00915363 0.12365 0.0099252 -0.00367397 0.0058753 -8.71383e-05 -0.0104446 0.0578364 -0.00903101 0.00616651 0.0943934 -0.00619222 -0.00288678 0.112596 0.00494169 0.000376819 0.131901 0.00612326 0.000904812 0.00188252 -0.000691916 0.0224364 0.0476767 -0.0179986 0.0123626 0.069536 -0.00483629 -0.000984621 0.10786 -0.00311934 0.0037764 0.135925 0.000481517 3.88915e-06 0.00158025 2.13501e-05 -0.00539844 0.0499522 -0.00143738 0.00316685 0.0859818 -0.00501201 0.0110558 0.0940717 0.00857952 0.0132055 0.109052 0.00341649 -1.46325e-05 0.00113804 -0.000330599 0.000902222 0.0530701 -0.010665 -0.00207641 0.0855788 -0.00172843 -0.00302531 0.10902 0.00152715 -0.00271093 0.123137 0.00212514 0.000579963 0.000742228 -4.39198e-05 0.0291166 0.0499706 -0.0168413 0.021126 0.0590802 -0.0102942 -0.00331771 0.112968 -0.000870938 -0.00264996 0.123638 -0.00269362 0.000533192 0.00141773 0.000166698 -0.00602355 0.0537709 -0.0017103 -0.00361385 0.0854977 -0.000188885 0.0225529 0.103689 0.00799146 0.0267913 0.110764 -0.00835483 0.000472541 0.00291839 3.38891e-05 0.00559656 0.050382 0.000342716 0.0085946 0.0685655 0.00738654 0.00378896 0.109415 0.00414526 -0.00110963 0.117597 -0.000432933 0.000910544 0.00125265 -0.000187528 0.0337625 0.0566216 -0.0190012 0.0272899 0.0648849 -0.0085096 -0.00237122 0.119436 -0.000567091 -0.00325563 0.125447 -0.00478496 -0.00770808 0.0139479 0.00337478 -0.0163765 0.0511804 0.00759113 -0.00794625 0.0857331 -0.00161485 0.0260624 0.105399 0.00812529 0.0276191 0.110705 -0.0105287 

