# vtk DataFile Version 2.0
Some data
ASCII
DATASET STRUCTURED_POINTS
DIMENSIONS 5 3 5
ORIGIN 0.5 0.833333 0.34
SPACING 1 1.66667 0.68
POINT_DATA 75
SCALARS RHO float 
LOOKUP_TABLE default 
0.367777 0.400081 0.272237 0.4004 0.608771 0.370051 0.312952 0.438781 0.434958 0.543051 0.383272 0.384039 0.543029 0.474675 0.478967 0.419073 0.531375 0.634958 0.575323 0.637991 0.43337 0.631744 0.504241 0.596402 0.482288 0.561579 0.499796 0.491305 0.537551 0.449236 0.44903 0.485873 0.667794 0.610728 0.528354 0.472042 0.64888 0.546654 0.638555 0.579525 0.555054 0.521382 0.477691 0.432791 0.586913 0.407435 0.60434 0.531838 0.465267 0.442903 0.459888 0.555713 0.585999 0.616473 0.554024 0.53449 0.565378 0.56368 0.552543 0.629735 0.31626 0.465577 0.536508 0.462564 0.252035 0.393566 0.543172 0.464703 0.434526 0.48233 0.504427 0.541354 0.194627 0.441311 0.339693 

VECTORS VAVG float 
-1.75972e-05 0.000737809 -0.00021155 -0.000932383 0.0422017 -0.0115619 0.0258619 0.100563 -0.0323036 0.0454919 0.16657 -0.0261361 0.0313265 0.19863 0.0207881 0.00085069 0.00149543 0.000207609 0.014693 0.0588173 -0.00109988 0.0262957 0.106366 -0.00680476 0.0222489 0.184823 0.0128489 -0.0181069 0.203005 0.0382029 -0.00106178 0.00407023 -0.000360367 -0.00400077 0.0501546 -0.0226428 0.0123289 0.10835 -0.0278003 0.0335927 0.170431 0.0691832 0.0359485 0.230734 0.0712481 0.00122205 0.00325195 -0.000487785 0.00642169 0.0433967 -0.0124441 0.0163469 0.0959504 -0.0266396 0.0375138 0.174603 -0.0293747 0.025251 0.221762 0.0212294 0.00599341 0.00902309 0.00100951 0.0224146 0.0539524 2.60265e-05 0.0277441 0.114364 -0.00308466 0.0215697 0.176274 0.0178211 -0.00651956 0.183389 0.0598482 -0.00082491 0.00485498 0.00362758 6.3846e-05 0.0512229 -0.0199901 0.044385 0.11902 -0.0224136 0.0677202 0.171046 0.0626621 0.0332341 0.174304 0.0578562 0.000406899 0.00176856 -4.73001e-05 -0.00166469 0.0469117 -0.002544 -0.0108156 0.109076 -0.0185722 0.0235954 0.190568 -0.0155419 0.0279161 0.241049 0.0159075 0.00374423 0.00510588 0.00202796 0.0249729 0.0527714 0.013186 0.000763375 0.12875 0.0235141 -0.00139991 0.159811 0.0455455 -0.0227031 0.175591 0.10325 7.31819e-05 0.0016024 0.00195136 -0.00481219 0.0517731 -0.0140731 0.0284181 0.101564 -0.0213054 0.0547456 0.173444 0.00350447 0.0196719 0.175326 0.0200861 0.000339859 0.00291793 7.40324e-05 -0.0015035 0.0512424 -0.000906927 -0.00553426 0.107982 -0.00591998 0.00801316 0.219685 0.00679482 0.0241179 0.25546 0.0225814 0.00238314 0.00286265 0.00233604 0.0291044 0.0542839 0.0296914 -0.00419273 0.125359 0.0457072 -0.0304458 0.120673 0.077257 -0.0236607 0.183669 0.075192 5.63415e-05 0.000489583 0.000767941 -0.0243394 0.0254941 -0.00118453 -0.0150402 0.0675671 -0.0263617 0.024509 0.156754 0.0102779 0.0237462 0.216374 0.0351425 -7.37398e-05 0.000596673 -5.8174e-05 -0.0079066 0.0719526 -0.00646105 -0.0194425 0.147993 -0.0261447 -0.0130879 0.204896 0.00190266 0.0521854 0.24699 0.0282517 0.00462406 0.0147597 0.00126438 0.0429057 0.127738 0.0220013 0.00468883 0.135844 0.0396534 -0.0312207 0.134495 0.0772939 -0.0249996 0.201549 0.0476593 -0.000140518 0.00152163 0.00068579 -0.00762201 0.0191672 0.00580065 -0.00822331 0.0733929 -0.0187619 0.0187535 0.174398 0.0353641 0.0156111 0.214279 0.03735 

