# vtk DataFile Version 2.0
Some data
ASCII
DATASET STRUCTURED_POINTS
DIMENSIONS 5 3 5
ORIGIN 0.5 0.833333 0.34
SPACING 1 1.66667 0.68
POINT_DATA 75
SCALARS RHO float 
LOOKUP_TABLE default 
0.362775 0.340869 0.501127 0.605788 0.332936 0.363413 0.312115 0.585242 0.601582 0.346025 0.364553 0.338646 0.474847 0.370725 0.355794 0.424111 0.583905 0.430343 0.603925 0.525677 0.381517 0.580329 0.636639 0.536123 0.534571 0.550921 0.419637 0.57349 0.620208 0.681181 0.456579 0.624513 0.39072 0.426447 0.499807 0.440603 0.639046 0.586694 0.61531 0.580438 0.532485 0.531732 0.508816 0.585542 0.623245 0.407822 0.567099 0.502723 0.525664 0.575238 0.453836 0.578625 0.474551 0.636444 0.601651 0.522572 0.577052 0.482379 0.624221 0.599791 0.318013 0.312783 0.323778 0.318849 0.430244 0.371496 0.502298 0.511377 0.442196 0.508665 0.489173 0.475701 0.581482 0.498109 0.590111 

VECTORS VAVG float 
-1.69442e-05 0.000189328 7.32625e-06 -0.00531686 0.0932726 0.0041601 -0.0145675 0.128902 -0.00105782 -0.0473194 0.135177 -0.00475366 -0.0515767 0.158108 0.00474463 0.000107552 0.00097157 6.15338e-05 0.00421299 0.0764114 0.000853784 0.00534601 0.128185 -0.00423392 0.00770288 0.142222 0.00563251 0.00823708 0.169141 0.0183078 -0.00214756 0.00348859 -0.00248563 -0.0808946 0.256154 0.00193562 -0.0803387 0.307226 0.000211663 -0.0179295 0.135676 -0.00938976 0.00745109 0.153519 -0.0041752 -0.000475283 0.00448521 -0.000104488 -0.00554432 0.0571053 -0.000939367 0.0010897 0.11008 -0.0032873 -0.0153445 0.133235 -0.00603599 -0.0199872 0.166513 0.00476461 0.0017636 0.00711814 9.08535e-05 0.00602647 0.0576224 -0.00480444 -0.00137854 0.113198 -0.0129406 0.0115453 0.137235 0.00561088 0.0100117 0.182174 0.0276511 0.00184491 0.00863199 -0.0141495 -0.022874 0.134074 -0.0199734 -0.036004 0.188296 -0.00940443 -0.00834169 0.139364 -0.010304 -0.00928634 0.180437 -0.00279723 -0.000778917 0.00361987 8.70725e-05 -0.010503 0.0593283 0.00133184 -0.00716894 0.100174 -0.00144202 -0.0114639 0.1463 -0.00819842 -0.00495537 0.171392 0.000973292 0.000551721 0.0038851 0.000137413 -0.00562742 0.0593299 -0.0132595 -0.0219183 0.0941159 -0.0395506 0.0127802 0.138856 0.00508264 0.0122023 0.163359 0.0285874 0.000438608 0.00462282 -0.00696804 0.00492785 0.0364457 -0.0173282 -0.00345684 0.0908138 -0.0177934 0.0057602 0.146348 -0.0121507 -0.0461761 0.242162 -0.000445577 -0.00133215 0.00498964 0.00014104 -0.0107031 0.0724545 -0.00023359 -0.0118104 0.113357 -0.0170759 -0.0356496 0.145574 -0.018811 -0.0169362 0.170474 -0.00724228 0.000105997 0.00413846 0.00018667 -0.00244877 0.0645607 -0.000589027 0.00433365 0.093611 0.00478546 0.00411387 0.146208 0.00791917 0.00943061 0.148629 0.0260031 -0.0015322 0.0012496 1.78601e-05 0.00146894 0.0363411 -0.00708887 -0.00622225 0.104121 -0.00656747 -0.00127627 0.148412 -0.0123597 -0.0134043 0.181047 -0.00342558 0.000279189 0.00113424 0.000111159 0.00942841 0.080949 0.00231102 -0.00786383 0.110088 -0.018036 -0.0254488 0.14289 -0.00925965 -0.0191416 0.167928 -0.00411008 -0.000342991 0.00198705 0.000182824 -0.00735776 0.062374 0.00613175 0.0205552 0.0788969 0.0352172 0.00165782 0.148975 0.0131198 -0.000678548 0.166465 0.00448382 -0.00256204 -0.00274035 0.00196704 0.00485401 0.0683688 -0.000154408 0.00179542 0.1072 -0.00486201 -0.0127912 0.143527 -0.0129284 -0.0226087 0.170896 -0.0033597 

