# vtk DataFile Version 2.0
Some data
ASCII
DATASET STRUCTURED_POINTS
DIMENSIONS 5 3 5
ORIGIN 0.5 0.833333 0.34
SPACING 1 1.66667 0.68
POINT_DATA 75
SCALARS RHO float 
LOOKUP_TABLE default 
0.365591 0.334242 0.609134 0.432851 0.367112 0.37446 0.422546 0.423013 0.487557 0.373039 0.363756 0.386826 0.50684 0.410636 0.511359 0.445944 0.58606 0.531148 0.603416 0.582431 0.371071 0.627378 0.504603 0.552607 0.574526 0.548383 0.519483 0.565684 0.653022 0.546545 0.485239 0.6026 0.371975 0.495804 0.478023 0.439201 0.628686 0.525219 0.555777 0.528511 0.522906 0.543019 0.555559 0.584639 0.596264 0.436985 0.617527 0.534875 0.648057 0.597539 0.473441 0.601111 0.462814 0.575528 0.57002 0.514226 0.517869 0.388351 0.557165 0.616294 0.330285 0.481874 0.36783 0.580221 0.557675 0.369076 0.474175 0.492309 0.582555 0.581026 0.499566 0.541864 0.479422 0.562466 0.339172 

VECTORS VAVG float 
-0.000417564 0.000912968 -0.000157706 -0.00768254 0.0956226 0.0281211 -0.0465598 0.107914 0.0501626 -0.129001 0.243189 0.0088585 -0.101187 0.289994 0.0557795 -0.000992382 0.00356649 8.12456e-05 -0.047274 0.16352 -0.00997845 -0.0746781 0.2263 -0.00453965 0.0273733 0.104731 0.0144516 0.0768734 0.202143 0.0331785 0.000288186 0.000917852 -0.000733651 0.0203344 0.0554783 -0.00128555 0.0534671 0.102175 0.0227634 0.0459451 0.155668 0.0342538 0.0376405 0.235605 0.0787905 -0.00509487 0.0111515 -0.00192522 -0.026977 0.0839714 0.00579661 -0.0778522 0.146922 0.0576542 -0.121509 0.233239 0.0268245 -0.0905262 0.243333 0.0463192 0.00222386 0.0107861 -0.00476369 -0.0123545 0.126088 -0.0239282 -0.0736957 0.194164 0.00224529 0.0286698 0.14935 0.00661227 0.062593 0.220386 0.0343587 0.00037273 0.00399446 -0.000253362 0.0113741 0.0693777 0.00186271 0.0282574 0.104202 0.0463077 0.0226614 0.14884 0.0412896 -0.0111417 0.239943 0.0890833 -0.00770253 0.0126201 -0.00202964 -0.0636867 0.097183 -0.00503144 -0.0633931 0.173722 0.0416982 -0.0802633 0.221405 0.0472536 -0.0762536 0.193091 0.039342 -0.00170641 0.00640762 -0.000721176 -0.0139814 0.0842082 0.000494758 -0.00966943 0.113355 0.0114568 0.0289415 0.16652 0.00360015 0.0275924 0.238737 0.0481903 -0.00188211 0.000822267 -3.95821e-05 0.00381457 0.0397251 0.015882 0.0049544 0.101803 0.0696079 0.00195764 0.155784 0.0378856 -0.0414437 0.229967 0.0925545 -0.0116404 0.0172976 -0.00263268 -0.0781358 0.11828 -0.0129716 -0.0764565 0.148699 -0.051814 -0.0742108 0.167043 0.0190761 -0.0770704 0.235301 0.0578665 -0.00405476 0.00859927 0.000729709 -0.0253641 0.0861429 2.86654e-05 -0.00198589 0.133165 -0.0196123 0.00830355 0.147988 0.0162883 0.0162066 0.243964 0.0673867 -0.00412611 0.000386247 -0.000510431 0.0010665 0.0424341 0.0104748 -0.000558571 0.127104 0.0371865 0.00317488 0.190928 0.0196841 -0.0314672 0.212236 0.06533 -0.00186255 0.00493169 0.00328223 -0.0374804 0.101731 0.0415862 -0.076238 0.141233 -0.0444261 -0.0988696 0.153962 0.0410132 -0.125024 0.22535 0.0800825 -0.000455795 0.00204438 0.0011684 -0.014477 0.0969952 0.00919162 0.014731 0.139985 -0.0190195 0.0153824 0.168256 0.0333299 0.0254164 0.277041 0.0639035 -0.000549098 0.00672131 -0.00033794 -0.00272008 0.0934892 0.00519156 0.00126541 0.152084 0.0128103 0.0216002 0.220114 0.0262156 -0.0237258 0.246155 0.071958 

