# vtk DataFile Version 2.0
Some data
ASCII
DATASET STRUCTURED_POINTS
DIMENSIONS 5 3 5
ORIGIN 0.5 0.833333 0.34
SPACING 1 1.66667 0.68
POINT_DATA 75
SCALARS RHO float 
LOOKUP_TABLE default 
0.383505 0.386494 0.525435 0.410879 0.456965 0.358106 0.15823 0.511209 0.533421 0.407537 0.362234 0.367615 0.453228 0.433757 0.514378 0.404264 0.514676 0.589072 0.557527 0.626105 0.383257 0.540814 0.595978 0.595253 0.570602 0.578315 0.592459 0.521413 0.586661 0.61322 0.472349 0.56889 0.569274 0.593267 0.580528 0.47615 0.604563 0.579424 0.545168 0.594256 0.514957 0.571892 0.559 0.587033 0.591088 0.427568 0.562808 0.393236 0.475972 0.570631 0.510016 0.456999 0.601042 0.575526 0.620839 0.506031 0.598959 0.569206 0.621039 0.562972 0.33088 0.532852 0.231527 0.495322 0.453324 0.411674 0.510431 0.441654 0.356002 0.484737 0.51033 0.558789 0.371453 0.486868 0.406543 

VECTORS VAVG float 
0.00228178 0.00461877 0.00621005 0.0353833 0.0889181 0.0853595 0.0253972 0.213385 0.0187663 0.000444428 0.286759 0.0501644 -0.0140652 0.367819 0.00385871 -0.000406771 0.0006131 1.93509e-05 -0.0536842 0.155829 0.0103781 -0.0139863 0.252049 0.0262151 -0.00369464 0.313317 0.0186332 -0.00984322 0.408539 -0.0153539 0.00186661 0.00275591 0.00120897 0.0453712 0.163504 0.0194679 0.0882032 0.266739 0.0197738 0.0634417 0.27809 -0.0226701 0.0653844 0.321565 -0.0221217 0.00150566 0.00297226 0.00516647 0.0250068 0.0628462 0.0911275 -0.0111328 0.223797 0.0354732 -0.0310222 0.290418 0.0578413 -0.0173813 0.383158 0.00672165 -0.0169627 0.0241567 0.00151939 -0.0942758 0.16319 0.0211375 -0.0415716 0.249722 0.0368749 -0.0228268 0.313386 0.00419266 -0.011883 0.441862 -0.0764807 -0.00251233 0.00788513 0.00404706 -0.00766553 0.127529 0.0194756 0.0632092 0.24542 0.0431252 0.0679688 0.287993 0.0208811 0.0743907 0.355361 0.010385 0.00255952 0.00799354 0.0119325 0.0196145 0.0760652 0.102078 -0.0379442 0.201216 0.0208054 -0.0537613 0.280167 0.0595403 -0.0194157 0.374367 0.0100217 -0.00410463 0.0160119 0.000347676 -0.0678646 0.144831 0.0497579 -0.0813416 0.182668 0.0638962 -0.0683691 0.275744 -0.0605753 -0.0657761 0.385186 -0.163784 -0.0315092 -0.00437011 0.00354162 -0.03867 0.159723 0.0263446 0.053131 0.222703 0.039779 0.0810714 0.267072 0.0406174 0.0916457 0.349125 -0.0222015 0.00343406 0.011621 0.0162831 0.0231171 0.10373 0.11776 -0.0155461 0.233451 0.0281849 -0.0323904 0.284941 0.0398469 0.0121253 0.361813 0.00543531 -0.000856206 0.0166545 0.00111521 -0.0154929 0.129772 0.0523815 -0.0253084 0.18125 0.0364702 -0.0483847 0.198346 -0.0118809 -0.0473868 0.260296 -0.131538 -0.0653602 -0.0101459 0.00553432 -0.0345481 0.17782 0.017493 0.0573315 0.21417 0.00744061 0.0898607 0.282786 0.0136472 0.091779 0.339895 -0.0262607 0.00121667 0.00131452 0.00686235 0.037968 0.056432 0.126608 0.0291519 0.327986 0.0126063 0.00823214 0.315181 0.0169527 0.00893955 0.352162 0.0120593 0.0153416 0.0219011 0.00800615 0.0870274 0.162243 0.0491443 -0.0178637 0.19166 -0.00446463 -0.0341128 0.194647 -0.0123107 0.0019884 0.305456 -0.0553993 -0.00765856 0.017615 -0.00765335 0.0177879 0.179915 -0.0470835 0.0551677 0.230398 -0.00855545 0.0869055 0.325332 -0.0133348 0.090094 0.34783 -0.0277215 

