# vtk DataFile Version 2.0
Some data
ASCII
DATASET STRUCTURED_POINTS
DIMENSIONS 5 3 5
ORIGIN 0.5 0.833333 0.34
SPACING 1 1.66667 0.68
POINT_DATA 75
SCALARS RHO float 
LOOKUP_TABLE default 
0.36721 0.276638 0.61477 0.550253 0.444997 0.374545 0.310123 0.461281 0.381814 0.552543 0.3159 0.297786 0.314244 0.522623 0.404761 0.454307 0.606506 0.646011 0.626485 0.625029 0.44786 0.578751 0.633509 0.579646 0.499412 0.36728 0.554129 0.562023 0.524368 0.559557 0.478366 0.574354 0.621124 0.582532 0.660731 0.507896 0.668982 0.665883 0.477953 0.514856 0.461815 0.567064 0.649655 0.57725 0.53412 0.42666 0.51283 0.512486 0.597817 0.635229 0.506753 0.592028 0.632579 0.576835 0.506305 0.542399 0.586063 0.602764 0.495989 0.588776 0.380652 0.522732 0.227592 0.49772 0.496368 0.392598 0.587809 0.552279 0.551964 0.333425 0.497746 0.558468 0.56462 0.388906 0.397844 

VECTORS VAVG float 
1.36174e-05 -0.000118235 -6.37163e-05 -0.0468351 0.128282 0.0425834 -0.0418208 0.197923 0.0759891 0.0229524 0.214379 0.11683 0.0237364 0.290249 0.0958818 -4.50042e-07 -0.000430726 -0.000392077 -0.00509277 0.141578 0.0355945 -0.000732913 0.197942 0.047253 -0.000927574 0.21747 0.075165 0.0072659 0.209577 0.13563 -7.3651e-05 0.000312636 2.14978e-06 -0.0169294 0.0614348 0.0178803 -0.042963 0.11818 0.0428243 -0.00525507 0.188674 0.0408309 0.0266964 0.260192 0.0558876 5.25928e-05 0.000348513 0.000499706 0.00304831 0.0607305 0.0199424 -0.0111202 0.211194 0.0579438 0.00355585 0.268827 0.0948326 0.0268094 0.313738 0.101585 -2.45312e-06 -0.00251015 -0.00228711 -0.00127307 0.0609302 0.0132663 -0.0336027 0.154614 0.0565127 -0.0205459 0.213442 0.0809581 0.00566827 0.26573 0.107245 -0.00716274 0.0122113 -0.000357199 -0.0315827 0.0712554 0.00810691 -0.0238252 0.124377 0.0338789 -0.018405 0.175084 0.0140765 0.0185156 0.292194 0.0447137 0.000700537 -0.000770416 -0.00177336 0.0307405 0.041038 -0.00923449 0.0354223 0.109608 0.0794456 0.00873968 0.256644 0.101678 0.0380819 0.287422 0.0820433 -0.000892848 -0.00167635 -0.000820701 -0.00348566 0.0139388 0.00506734 -0.046577 0.0767258 0.054533 -0.0550494 0.1759 0.0803961 0.0389594 0.276423 0.0950142 -0.00445871 0.00758162 -0.00263428 -0.0208756 0.0635467 -0.0106541 -0.0220484 0.165841 0.0372695 -0.0155687 0.250528 0.0336729 -0.0156072 0.309037 0.0224418 0.00118396 -0.000724849 -0.00278194 0.0369009 0.047696 -0.0104085 0.0367819 0.0712851 0.102563 0.0628646 0.183324 0.130709 0.0860262 0.29783 0.0320795 -0.00146766 -0.00112081 4.99914e-05 -0.0110472 0.0303322 0.0153326 -0.033091 0.0637079 0.0491855 0.00389266 0.179031 0.0671486 0.0646221 0.267652 0.0936253 -0.000781678 0.00199873 -0.0042377 0.0030424 0.0661207 -0.0170503 -0.0117209 0.152534 0.0391905 0.0508187 0.219541 0.0340318 0.0326642 0.272099 0.0386812 0.00143804 0.00213464 0.000235665 0.0365854 0.0619204 0.00358445 0.0526156 0.111012 0.0369605 0.0815378 0.1886 0.125814 0.108989 0.300335 0.0175416 0.00091636 0.00867531 0.00253535 0.00921797 0.0987555 0.0283215 -0.0187423 0.0964469 0.0348627 0.0192508 0.198018 0.0720607 0.0499592 0.263043 0.11281 0.00254234 0.0135717 0.00501485 0.0345671 0.113336 -0.00129314 0.0240812 0.134114 0.0328997 0.082327 0.177688 0.0451621 0.0525009 0.24569 0.0686561 

