# vtk DataFile Version 2.0
Some data
ASCII
DATASET STRUCTURED_POINTS
DIMENSIONS 5 3 5
ORIGIN 0.5 0.833333 0.34
SPACING 1 1.66667 0.68
POINT_DATA 75
SCALARS RHO float 
LOOKUP_TABLE default 
0.374938 0.434816 0.491089 0.51721 0.414835 0.429853 0.496291 0.381236 0.33528 0.339969 0.36101 0.32594 0.470932 0.540865 0.538766 0.393138 0.55149 0.533466 0.570003 0.445703 0.38803 0.604823 0.582179 0.568533 0.662196 0.552813 0.40624 0.585796 0.5543 0.49252 0.457429 0.528683 0.602831 0.586076 0.510642 0.447462 0.634349 0.621405 0.584969 0.533998 0.529082 0.391839 0.573592 0.598169 0.537952 0.438482 0.605359 0.606223 0.50682 0.626285 0.454646 0.547352 0.614313 0.639916 0.469777 0.534518 0.602434 0.622316 0.594495 0.589839 0.328582 0.577129 0.346425 0.430951 0.465678 0.370539 0.381181 0.544789 0.572301 0.607616 0.521618 0.53971 0.516594 0.368264 0.330406 

VECTORS VAVG float 
-0.00171481 0.00260365 -0.000555563 -0.0452182 0.0787767 -0.0165681 -0.0429159 0.196871 -0.0369628 0.0619189 0.280798 -0.0237854 0.0988089 0.257893 -0.0357075 -0.000958079 0.00858424 -0.00394011 0.010104 0.0657391 -0.00324031 0.0239888 0.135706 0.037152 0.00535098 0.243276 0.0609615 -0.126976 0.268874 -0.0296464 0.000241387 0.00324146 0.000243458 -0.00141295 0.122187 0.0205393 -0.00619483 0.201113 0.00487702 -0.0296685 0.250895 -0.0503797 -0.0537168 0.27992 0.0157683 -0.000897235 0.00181803 -0.000133047 -0.0202736 0.0771752 -0.00587811 0.00932635 0.161704 -0.0219577 0.0892779 0.251291 -0.00209644 0.0645122 0.239315 -0.0283081 0.0029933 0.0113696 -0.000105478 0.0171453 0.0760836 0.00338624 0.0178587 0.138737 0.0281335 -0.0210439 0.198686 0.0603171 -0.132966 0.250536 -0.0149796 0.00211397 0.00679465 -0.00069162 0.0249713 0.111449 0.00231199 0.0242286 0.175273 -0.0312238 -0.0658639 0.270938 -0.0549424 -0.123903 0.273926 -0.0333772 -0.00227218 0.00422966 -0.000924893 -0.0103811 0.0721843 -0.00469754 -0.0163461 0.110068 -0.0190065 0.0154451 0.163389 0.0243701 0.0333263 0.212502 0.00261624 0.000383734 0.00535351 0.000115759 0.00411977 0.069069 0.00270716 0.00720761 0.120112 0.0163954 -0.0861919 0.164771 0.0117662 -0.110006 0.247657 -0.00625992 0.0031186 0.00793776 0.00801322 0.0380332 0.0803553 0.00202862 -0.00617081 0.0924995 -0.048308 -0.121404 0.267658 -0.0466634 -0.102473 0.27614 -0.024451 -0.00579643 0.00927425 -0.00245469 -0.0340902 0.0616074 -0.0207615 -0.0319403 0.0711531 -0.0518324 -0.00874785 0.149329 -0.011625 0.0387141 0.221094 -0.0197554 -0.000903104 0.00357541 0.000184895 -0.0114782 0.0663996 0.0100734 -0.0206742 0.0902997 0.0365645 -0.081626 0.146235 -0.0022782 -0.022928 0.308756 -0.0367315 0.00567897 0.0136145 0.0164627 0.0254767 0.0707565 0.018451 -0.0475885 0.0683161 -0.0344329 -0.105634 0.186002 0.00253535 -0.0720435 0.263035 -0.000226923 -0.00104991 0.00213329 -0.000588872 -0.0303657 0.0487732 -0.0147687 -0.0249352 0.0836458 -0.0524238 -0.00888378 0.174236 -0.051936 0.0296582 0.234053 -0.0487348 -0.000871802 0.00246935 0.000738588 -0.0223677 0.0849897 0.0239385 -0.0114343 0.100329 0.0338979 0.00657133 0.149714 -0.000651656 0.0244821 0.288565 -0.0523586 -0.000943425 0.0129546 0.00116977 -7.92618e-05 0.092335 0.00513148 -0.0185245 0.173919 -0.0433448 -0.0707837 0.189987 -0.0134056 -0.0526029 0.235464 -0.0138339 

