# vtk DataFile Version 2.0
Some data
ASCII
DATASET STRUCTURED_POINTS
DIMENSIONS 5 3 5
ORIGIN 0.5 0.833333 0.34
SPACING 1 1.66667 0.68
POINT_DATA 75
SCALARS RHO float 
LOOKUP_TABLE default 
0.365988 0.38395 0.424105 0.506684 0.436088 0.365668 0.32476 0.503676 0.452442 0.550372 0.323287 0.397533 0.433632 0.34425 0.596091 0.42855 0.607932 0.561347 0.665409 0.604139 0.407979 0.635294 0.605707 0.553416 0.643654 0.378163 0.58093 0.479915 0.61398 0.573808 0.44966 0.598639 0.530785 0.616251 0.603666 0.463735 0.630078 0.563959 0.56097 0.56197 0.490072 0.661052 0.519883 0.549121 0.397884 0.404009 0.467288 0.418922 0.454023 0.570242 0.47442 0.606765 0.564025 0.621894 0.581502 0.538339 0.646452 0.608348 0.623967 0.499073 0.313867 0.117879 0.446151 0.457369 0.548866 0.376642 0.55944 0.390835 0.490119 0.296711 0.476969 0.489864 0.495944 0.544456 0.348978 

VECTORS VAVG float 
1.15619e-06 -1.51457e-05 1.59503e-06 0.00535433 0.0128859 0.000434051 0.00396201 0.033067 -0.00109943 -0.0131385 0.0531669 -0.0146054 -0.0149774 0.0722133 -0.0271519 9.85228e-05 0.000190162 3.53978e-06 -0.00594135 0.0166986 -0.0152223 0.00366417 0.0232985 -0.00881518 0.00697408 0.0416346 -0.00341837 -0.00672791 0.0753033 -0.00832454 -0.00021741 0.000588532 -0.000300174 -0.00708575 0.0190628 -0.00993269 -0.000476843 0.0285922 -0.0325027 -0.00421537 0.0434863 -0.0396175 0.0166244 0.0674909 -0.0253898 0.00024875 0.000902858 1.99882e-07 0.0022226 0.0121791 0.00121339 -0.00834876 0.0361409 -0.00204021 -0.0119907 0.0518912 -0.0213933 -0.00174195 0.0636987 -0.0167275 0.000827114 0.00162153 6.56808e-06 0.000401187 0.0131755 -0.00614864 0.00187568 0.027855 -0.00322776 0.00671282 0.0439576 -0.00762438 0.0101969 0.071267 -0.013821 -0.00235699 0.00208547 -0.00145264 -0.00769097 0.0162525 -0.00951776 0.0016402 0.0326335 -0.0186544 -0.00845165 0.0532146 -0.0420528 0.0127399 0.0695119 -0.0388938 6.55387e-05 0.000516006 -2.91078e-05 -0.000917029 0.0132827 0.00104141 -0.00725402 0.0311734 -0.000220213 0.000200817 0.0402714 -0.0226558 -0.0124465 0.055853 -0.0172428 0.000484646 0.00118028 3.78905e-05 0.00302778 0.0134748 -4.39931e-05 0.00132617 0.0267718 0.00415279 -0.00116653 0.0498559 -0.00972879 0.0117972 0.0746938 -0.0162418 -0.00137786 0.00179482 -0.0015709 -0.00142777 0.0111793 -0.010375 0.0036717 0.0273599 -0.0129423 -0.0235377 0.0688869 -0.0300398 0.0105908 0.0775676 -0.0310605 6.52393e-05 0.000859843 -7.57517e-05 -1.74814e-06 0.0123465 -0.00105779 -0.0192868 0.0541952 -0.0195412 0.00897755 0.0383072 -0.0176434 -0.0282551 0.0576061 -0.0240912 0.000444583 0.00131945 6.90115e-05 0.00137415 0.00879943 -0.00153787 0.00265474 0.00935808 0.0138626 0.00472601 0.0464151 -0.0092689 -0.00187059 0.0767575 -0.021734 0.000808047 0.000582834 -0.000958339 0.00456833 0.0067103 -0.00972778 0.00477526 0.0242882 -0.00511766 -0.00719222 0.0579797 -0.017662 0.00833318 0.067919 -0.0299529 0 0 0 -0.00843914 0.0146241 -0.0040709 -0.0337578 0.0750432 -0.028199 0.0112488 0.0399843 -0.0165639 -0.0369114 0.0593121 -0.0281431 -0.000197383 -9.73732e-05 -0.000301755 -0.00681431 -0.00197674 -0.0120319 0.00218782 0.00878031 0.00806273 0.0122678 0.0419478 -0.0073866 -0.00734452 0.079319 -0.0266113 6.28317e-05 0.00132891 -0.000597853 0.00371415 0.00288316 -0.00795743 0.00858147 0.0189359 -0.00538697 0.0147972 0.0469866 -0.00807503 0.00754805 0.060933 -0.0283628 

