# vtk DataFile Version 2.0
Some data
ASCII
DATASET STRUCTURED_POINTS
DIMENSIONS 4 3 8
ORIGIN 2.5 0.833333 0.2125
SPACING 5 1.66667 0.425
POINT_DATA 96
SCALARS RHO float 
LOOKUP_TABLE default 
0.398728 0.0707421 0 0 0.443746 0.0900354 0 0 0.392297 0.0900354 0 0 0.565937 0.135053 0 0 0.610955 0.147915 0 0 0.508057 0.109329 0 0 0.591661 0.205795 0 0 0.591661 0.180071 0 0 0.617386 0.17364 0 0 0.514488 0.205795 0 0 0.572368 0.212226 0 0 0.520919 0.167209 0 0 0.520919 0.186502 0 0 0.578799 0.212226 0 0 0.508057 0.186502 0 0 0.443746 0.109329 0 0 0.488764 0.128622 0 0 0.514488 0.102898 0 0 0.398728 0.141484 0 0 0.450177 0.147915 0 0 0.443746 0.135053 0 0 0.282968 0.122191 0 0 0.2894 0.141484 0 0 0.327986 0.102898 0 0 

VECTORS VAVG float 
-0.0283897 0.398094 -0.000458533 0.00894538 0.329041 -0.0148209 0 0 0 0 0 0 -0.0196967 0.430218 -0.00807464 0.0115467 0.440643 -0.0322245 0 0 0 0 0 0 0.0258776 0.437451 0.0173986 -0.00574553 0.457201 0.0122804 0 0 0 0 0 0 -0.0363524 0.43298 0.00827903 0.00903713 0.577833 -0.0227986 0 0 0 0 0 0 -0.0178918 0.443596 1.37572e-05 0.0115959 0.659395 -0.0199012 0 0 0 0 0 0 0.0314579 0.449552 0.0100655 -0.00610456 0.446638 0.0144758 0 0 0 0 0 0 -0.0451496 0.449379 0.00963913 -0.0148686 0.849755 -0.0160528 0 0 0 0 0 0 -0.00741197 0.449885 0.00908238 -0.0262649 0.862004 -0.0427312 0 0 0 0 0 0 0.0188668 0.467081 0.0010338 0.0223891 0.729297 0.0105396 0 0 0 0 0 0 -0.0381614 0.474577 -0.00772371 -0.0115188 0.906446 -0.0139539 0 0 0 0 0 0 0.0254108 0.480806 0.00668036 -0.0271013 0.976596 -0.0243207 0 0 0 0 0 0 0.0229003 0.459941 0.0103831 -0.00599879 0.754728 0.00317058 0 0 0 0 0 0 -0.0586724 0.441151 -0.018274 0.0138494 0.798092 -0.010623 0 0 0 0 0 0 0.00859229 0.474348 -0.000433409 -0.0127608 0.943726 -0.0213559 0 0 0 0 0 0 0.0311123 0.472276 0.0176862 0.00309533 0.920336 0.000912704 0 0 0 0 0 0 -0.071499 0.435883 -0.0403579 0.00266456 0.438822 -0.000454254 0 0 0 0 0 0 -0.0094118 0.414299 0.00195744 -0.0122654 0.48113 -0.00961119 0 0 0 0 0 0 0.0327645 0.427986 0.0234199 -0.0210173 0.500146 0.0100938 0 0 0 0 0 0 -0.0564448 0.40126 -0.0179262 0.0118938 0.621676 0.0114805 0 0 0 0 0 0 -0.0218052 0.415384 0.00146046 -0.0113022 0.628856 0.00182986 0 0 0 0 0 0 0.0364577 0.41975 0.013297 -0.0471471 0.636643 0.00226987 0 0 0 0 0 0 -0.0566068 0.326457 -0.0249071 0.00795067 0.579661 -0.00718416 0 0 0 0 0 0 -0.0159023 0.342424 0.0034818 -0.00934564 0.621429 0.00984311 0 0 0 0 0 0 0.0223831 0.38622 0.00905853 -0.0258324 0.516042 -0.00771305 0 0 0 0 0 0 

