# vtk DataFile Version 2.0
Some data
ASCII
DATASET STRUCTURED_POINTS
DIMENSIONS 5 3 5
ORIGIN 0.5 0.833333 0.34
SPACING 1 1.66667 0.68
POINT_DATA 75
SCALARS RHO float 
LOOKUP_TABLE default 
0.37855 0.539147 0.437406 0.367502 0.382105 0.364152 0.202652 0.162446 0.292269 0.622022 0.350639 0.203958 0.359474 0.427453 0.448327 0.430251 0.5848 0.556047 0.526542 0.493247 0.400703 0.538544 0.488795 0.595568 0.592066 0.544858 0.400888 0.497836 0.590168 0.61148 0.46417 0.577669 0.579847 0.541271 0.453053 0.465999 0.523885 0.544403 0.664908 0.611702 0.535435 0.538074 0.541164 0.617599 0.552225 0.38163 0.508154 0.577728 0.636187 0.554016 0.487826 0.538484 0.519847 0.597807 0.486217 0.511241 0.415378 0.600536 0.647537 0.658288 0.33207 0.485895 0.372499 0.565852 0.512977 0.402407 0.550977 0.534902 0.55251 0.254098 0.506193 0.525849 0.58149 0.524281 0.561534 

VECTORS VAVG float 
-0.000586719 0.00150538 -0.00146833 -0.0120986 0.03332 -0.0290479 -0.00102714 0.0956255 -0.0257371 -0.00578537 0.170076 -0.024183 -0.0188502 0.227325 -0.0600126 0.000250644 0.000533795 7.26637e-06 -0.00372878 0.0257307 -0.00856645 0.0429096 0.128728 -0.0333966 0.0352899 0.173048 -0.0537836 0.0677452 0.217584 -0.0274575 5.00219e-05 -5.62951e-05 0.000350401 -0.0042684 0.0426681 -0.0110995 0.00298398 0.0760309 -0.0111456 0.0610792 0.173509 0.00750087 0.0172438 0.189516 -0.014542 0.000172245 0.00236953 -0.00250804 -0.00353398 0.0432514 -0.0207572 -0.0047906 0.108394 -0.0290742 -0.0202682 0.19612 -0.00712976 -0.0279562 0.237362 -0.0426895 0.00241023 0.00504537 9.48051e-05 0.0084181 0.0315366 0.00505841 0.0188259 0.094599 0.0121403 0.0283731 0.167419 -0.0532684 0.0356583 0.209364 -0.0409751 0.000821623 -0.000173147 0.00179545 0.0020649 0.0478525 -0.0146037 0.007039 0.102515 -0.0146459 0.0297371 0.153479 -0.00800061 0.0132159 0.182485 -0.015367 0.000293932 0.00274257 -0.000995057 0.00387868 0.0867527 0.0107292 -0.00427513 0.111645 -0.0260425 -0.0207948 0.175544 0.00702596 -0.0323853 0.231405 -0.0253748 -0.00183787 0.00601999 -0.000163915 -0.0119724 0.0501576 0.00830163 0.00919906 0.0928232 0.0117464 0.0318019 0.157866 -0.0338766 0.0387634 0.21965 -0.0166659 0.000626724 0.00109411 -0.00244349 0.00900918 0.0478099 -0.0439512 0.00855353 0.106445 -0.0231447 0.000108483 0.15234 -0.021877 -0.0119325 0.186696 -0.0299769 0.000157482 0.000271574 -0.000286531 0.00102117 0.0654626 0.00411798 -0.0266055 0.0997596 -0.020325 -0.0181017 0.152147 0.0108568 -0.0367037 0.211572 -0.0219708 -0.00458158 0.00865236 -0.000288643 -0.0211673 0.0553994 -0.0103362 0.0102608 0.105322 -0.0327573 0.0186116 0.17747 -0.0227766 0.0295509 0.216399 -0.00408201 -0.000240711 0.000558994 -0.00216778 0.00682733 0.0300144 -0.0352675 0.00608703 0.0847849 -0.00640853 -0.0103337 0.153635 -0.0199896 -0.0239429 0.195035 -0.0418439 0.000890066 0.000903187 -0.00205539 0.00903403 0.0176614 -0.0147347 -0.0121424 0.114995 -0.0280005 0.00590145 0.146418 -0.00170648 0.00229235 0.190514 -0.02581 0.00321421 -0.000609617 -0.00648453 0.0265443 0.00629856 -0.053542 0.0473467 0.098457 -0.0380625 0.0517038 0.183279 -0.0266457 0.0184049 0.226618 -0.00535599 5.35096e-06 -0.00125685 -0.000892179 0.00037447 0.00259478 0.0020968 0.00621173 0.0748899 0.0131541 0.0047897 0.150278 -0.00264803 -0.00635614 0.176748 -0.0222548 

