# vtk DataFile Version 2.0
Some data
ASCII
DATASET STRUCTURED_POINTS
DIMENSIONS 5 3 5
ORIGIN 0.5 0.833333 0.34
SPACING 1 1.66667 0.68
POINT_DATA 75
SCALARS RHO float 
LOOKUP_TABLE default 
0.37571 0.340445 0.427731 0.238352 0.416028 0.374556 0.364084 0.593949 0.410687 0.524405 0.355031 0.289923 0.32761 0.340015 0.386874 0.487248 0.601917 0.605064 0.656272 0.54152 0.46107 0.553331 0.607797 0.647572 0.633078 0.57365 0.586528 0.485344 0.572853 0.602828 0.496147 0.595631 0.471211 0.611951 0.602047 0.50603 0.604781 0.483864 0.597937 0.455552 0.513839 0.573382 0.525743 0.514224 0.594494 0.44469 0.590201 0.518911 0.522476 0.606813 0.512791 0.574177 0.501056 0.623897 0.504037 0.513406 0.502016 0.411688 0.488959 0.5684 0.410715 0.577762 0.551365 0.543512 0.424197 0.443162 0.531515 0.361932 0.507089 0.458305 0.509496 0.476079 0.434277 0.513825 0.492585 

VECTORS VAVG float 
3.24995e-05 -0.000115072 0.000253371 -0.0187877 0.0423007 0.013825 -0.0529572 0.0895688 0.00947878 -0.00130221 0.201801 0.0520702 -0.0697267 0.291544 0.0342602 0.000156657 -7.37127e-06 -2.43592e-05 -0.0190196 0.0161231 -0.00767746 -0.0104093 0.0956267 -0.028988 0.0197302 0.211789 0.0320719 0.0158346 0.295141 0.0377658 -0.000135459 -0.000492543 -0.00181095 0.0157653 0.0109034 -0.101232 0.0257659 0.0425269 -0.133226 0.0161318 0.227343 0.0128449 0.00438208 0.313158 0.0359236 4.31588e-05 -0.00104931 0.00130301 -0.00182712 0.00975566 0.0092303 -0.0186038 0.0858013 0.00239025 -0.0101919 0.195229 0.0406439 -0.037468 0.272062 0.0697129 0.000346329 0.000658108 -0.000117846 -0.00734009 0.0123442 -0.00306011 -0.00102883 0.13714 -0.0105217 0.0101725 0.219796 0.0269115 0.00884154 0.299858 0.0470544 -0.000557096 -0.00106073 -0.00739637 0.000829719 0.0188318 -0.0446905 -0.0129547 0.0872566 -0.0907341 -0.00418587 0.244889 0.0191106 0.0272518 0.301851 0.0469061 -0.000987767 -0.00105358 0.00120676 -0.00294736 -0.00579376 0.00912861 -0.0118749 0.0630573 0.0304791 -0.0274283 0.199066 0.044478 -0.0343099 0.294748 0.0783659 0.00156835 0.00160608 0.000158565 -0.00209711 0.00676688 -0.000234735 -0.00844258 0.125929 -0.0167445 -0.028338 0.207685 -0.00933567 0.00669233 0.303683 0.0566926 -0.000697414 -0.00177321 -0.00356973 -0.0289794 -0.00234748 -0.0288302 -0.0330992 0.0812796 -0.0632187 -0.0190065 0.241988 0.0163807 0.0346172 0.294412 0.0334136 -0.00195358 -0.00112264 0.00187444 -0.00896691 0.00950078 0.0217252 -0.0385061 0.0826376 0.071647 -0.0413354 0.201859 0.0728173 -0.00694048 0.321884 0.0735023 0.00211359 0.00225396 0.000709116 0.0100785 0.042324 0.0063727 -0.0287711 0.162056 -0.00573207 -0.0565633 0.208432 0.0152732 -0.0064198 0.279702 0.0439427 -0.000628788 -0.00140388 -0.000413199 -0.0355139 -0.0114507 -0.0303334 -0.0438231 0.0739793 -0.0197319 -0.0164815 0.227007 0.013029 0.0075351 0.285177 0.0148992 0.0227301 0.0256359 0.0036098 0.0356976 0.0724553 0.021873 -0.0608434 0.0462478 0.0388625 -0.0758364 0.181594 0.0550511 0.00479581 0.304067 0.0626128 0.00205442 0.00615464 0.000420057 0.0124956 0.0661462 0.00746767 -0.0265659 0.161513 0.00575513 -0.0364147 0.205646 0.0359515 0.0134026 0.256801 0.0224698 -0.00668886 0.00461328 -0.0135951 -0.024177 0.0241812 -0.129268 -0.0268219 0.127614 -0.0075012 0.00667838 0.212072 0.000637814 0.0179119 0.293924 -0.00496972 

