# vtk DataFile Version 2.0
Some data
ASCII
DATASET STRUCTURED_POINTS
DIMENSIONS 5 3 5
ORIGIN 0.5 0.833333 0.34
SPACING 1 1.66667 0.68
POINT_DATA 75
SCALARS RHO float 
LOOKUP_TABLE default 
0.369323 0.280358 0.526519 0.522855 0.5698 0.361009 0.335492 0.372211 0.287721 0.532021 0.320112 0.256389 0.655723 0.571608 0.495436 0.468508 0.535569 0.620769 0.626503 0.593269 0.35972 0.623449 0.50024 0.587355 0.646502 0.360297 0.52906 0.566314 0.469149 0.598766 0.472385 0.653923 0.636196 0.614315 0.614738 0.429601 0.614104 0.352194 0.541814 0.610389 0.416727 0.53198 0.606493 0.407729 0.623421 0.385554 0.435687 0.481961 0.607305 0.59788 0.439047 0.507788 0.486654 0.520692 0.601592 0.506443 0.467458 0.622171 0.48595 0.569052 0.333689 0.452102 0.509018 0.551826 0.285315 0.373276 0.514654 0.503186 0.547696 0.364949 0.418342 0.39092 0.282035 0.421597 0.392828 

VECTORS VAVG float 
-0.000205001 -2.43924e-05 0.000272146 -0.00664969 -0.00361038 0.008292 -0.00199916 0.00673581 0.00576578 -0.000951741 0.00405265 -0.00066339 -0.00391251 -0.00201946 -0.00771284 -2.01619e-05 -2.88756e-05 5.82701e-05 -0.00222396 -0.00447561 0.00055135 -0.00700492 -0.00892036 0.00109163 -0.00818408 0.00117197 0.00252254 -0.00954599 0.00507829 -0.00551336 1.68929e-05 -6.26518e-06 -9.46657e-05 0.000334997 0.00112259 0.00137854 -0.0018162 0.0025365 0.0109412 -0.00304978 0.00531703 -0.00108573 -0.00997978 0.00491657 -0.000257766 -0.00173649 -0.00020662 0.00230526 -0.00805343 -0.00113453 0.0102029 -0.0035458 0.00496224 0.00353681 -0.00233967 0.00401614 -0.00033106 -0.00558949 0.00349456 -0.00114708 -0.000177791 -0.000241129 0.000510644 -0.000376011 -0.00268268 0.00239884 -0.00771625 -0.0100081 0.00350687 -0.00816529 -0.00122933 0.00352068 -0.00861029 0.00304982 -0.00375995 -0.00023051 -0.000120253 -0.000822442 -0.00168567 -0.000292945 -0.00444419 -0.0043897 -0.00047004 0.0169727 -0.00501824 0.00345092 0.00562344 -0.00968022 0.00417456 0.00169793 -0.000764095 -2.67418e-05 0.00116212 -0.00540214 0.00130859 0.010236 -0.00522942 0.0025654 0.00252089 -0.00559963 0.00270521 0.000262346 -0.00733271 0.0044406 0.00128373 0.000193466 3.70636e-05 0.000116354 0.0032534 0.000527495 0.00309415 -0.00512749 -0.00171068 0.00702591 -0.00836557 0.00262735 0.00120333 -0.00777907 0.00683028 -0.00187575 -0.000103547 -2.54289e-05 -0.000196943 -0.0045399 0.00305795 -0.00406982 -0.00514953 0.00338019 0.00294069 -0.00442184 0.00252783 0.00143838 -0.00667161 0.00287553 0.00288106 -8.46848e-05 4.91227e-05 0.000249861 -0.00293081 0.00123648 0.0100541 -0.00275582 0.00100259 0.00316242 -0.00595605 0.000469577 -0.000112134 -0.00979536 0.00533637 0.00115756 3.14749e-05 1.23664e-05 9.65521e-06 6.90145e-05 -0.000338993 0.00350139 -0.00351703 0.000784262 0.0108128 -0.0137724 0.0118933 0.00165991 -0.0174782 0.027405 0.00248631 -1.83585e-05 4.95728e-05 2.6608e-05 -0.00445546 0.00328549 -0.00237811 -0.00770283 0.0060413 -0.000269121 -0.00784545 0.00602766 -0.00584967 -0.00722808 0.00288695 -0.000184287 1.81685e-05 0.000158162 1.66817e-05 0.00053751 -0.000414999 0.00394778 0.00196325 -0.000387847 0.00674537 -0.00630075 -0.00180825 -0.000356005 -0.00866996 0.00314319 0.000129526 -5.06217e-05 -2.23165e-05 -8.5634e-06 -0.00505383 -0.00310716 0.000248181 -0.00411896 0.00125767 0.00939618 -0.0144876 0.00966214 0.0025254 -0.0191233 0.0275077 0.00339745 -0.000569714 0.000780453 2.70871e-05 -0.0019368 0.00231209 0.000300814 -0.00984053 0.0080754 0.000481978 -0.00848895 0.00664913 -0.00825565 -0.00745037 0.00243536 -0.00191989 

