# vtk DataFile Version 2.0
Some data
ASCII
DATASET STRUCTURED_POINTS
DIMENSIONS 5 3 5
ORIGIN 0.5 0.833333 0.34
SPACING 1 1.66667 0.68
POINT_DATA 75
SCALARS RHO float 
LOOKUP_TABLE default 
0.370587 0.518217 0.548109 0.337789 0.391855 0.366774 0.247308 0.528876 0.337312 0.399953 0.353277 0.271823 0.447278 0.441368 0.406131 0.426032 0.623825 0.612707 0.530175 0.543548 0.419726 0.580119 0.671758 0.477843 0.635556 0.544696 0.467306 0.607707 0.559848 0.588711 0.472576 0.583423 0.575934 0.540161 0.591793 0.456546 0.529146 0.612719 0.535894 0.624398 0.523627 0.465072 0.53088 0.567647 0.614367 0.380116 0.442233 0.598526 0.501478 0.543559 0.465904 0.58673 0.475152 0.532822 0.646656 0.5306 0.484494 0.523623 0.56981 0.546562 0.336119 0.495767 0.359109 0.521101 0.455437 0.425586 0.483819 0.252419 0.579411 0.543979 0.511278 0.519214 0.51026 0.51192 0.522224 

VECTORS VAVG float 
-0.000206647 0.000777784 -0.00190496 -0.00515807 0.0364342 -0.0594639 0.0185739 0.122316 -0.0402496 0.024064 0.244845 -0.0153322 0.09016 0.367787 -0.00671919 0.000370979 0.000626862 9.14935e-05 0.012716 0.0246254 -0.00375655 0.0160441 0.0637826 -0.0241736 0.0407035 0.217916 -0.0113827 0.0593553 0.294728 0.0459345 0.00010063 0.000194801 0.00046231 0.00336561 0.0536995 -0.00858589 0.0221905 0.118181 -0.00717975 0.0263819 0.28074 -0.0751835 0.0451847 0.313813 -0.102174 -0.00154573 -0.000336371 -0.00384363 -0.00878984 0.0293252 -0.0402632 -0.00444541 0.157009 -0.00576491 0.00906706 0.272266 -0.00227422 0.0344329 0.334063 0.0194457 0.00316351 0.00527147 0.000769087 0.0149545 0.0294882 0.014073 0.0207999 0.0920602 0.0157286 0.0284898 0.21405 0.000671627 0.0376497 0.301063 0.0451836 0.000830539 0.000178362 0.00212142 0.018888 0.0736514 -0.00475154 0.0677909 0.208628 0.00436521 0.0482149 0.302268 -0.0372401 0.0275892 0.330384 -0.0723749 -0.00127451 -0.000130748 -0.00320637 0.000737339 0.0358741 -0.026994 -0.0429216 0.190891 -0.0164943 -0.0751626 0.303165 -0.0221316 -0.00149327 0.314069 0.0296357 0.000737923 0.00270285 0.00024948 0.0110523 0.0447811 0.0063459 0.0756195 0.141716 0.00613874 0.0442101 0.251052 0.0169928 0.0239168 0.319489 0.0436147 0.00159567 0.000447832 -0.00157017 0.0368635 0.0700756 -0.0271835 0.0684298 0.202807 0.00602038 0.0453332 0.271305 -2.12243e-05 0.0109773 0.337427 -0.042874 -3.56996e-05 -0.000123879 -0.0001079 0.00381526 0.0206633 -0.0390185 -0.0339973 0.187373 -0.0278594 -0.0133171 0.283966 -0.0404527 0.0732297 0.294355 -0.0229541 -0.000453348 0.00288868 3.78946e-05 0.026044 0.0649197 -0.0153644 0.117276 0.204981 -0.0473973 0.0569761 0.270615 0.0357592 0.0529458 0.328728 0.0281109 0.00200353 0.00167177 -0.00419048 0.0180483 0.040488 -0.0442252 0.0135897 0.134586 -0.0337892 0.0597125 0.209032 0.0151341 0.0536365 0.345766 -0.0361361 -0.000351964 -0.00146887 -0.00156502 -0.000521451 -0.0168197 -0.0370537 -0.00122593 0.215077 -0.0554014 0.0704916 0.242364 -0.0852441 0.114399 0.28654 -0.0399155 0.0043084 0.00376881 -0.00403686 0.0312111 0.0365248 -0.0251575 0.0825726 0.192004 -0.00936432 0.0612358 0.232568 0.0512101 0.0558053 0.28973 0.0270924 0.00101835 0.00168466 0.000693723 0.0023477 0.0322888 -0.00907292 -0.0105013 0.127066 -0.0357256 0.0609798 0.208649 0.00296538 0.115953 0.342546 -0.0568582 

