# vtk DataFile Version 2.0
Some data
ASCII
DATASET STRUCTURED_POINTS
DIMENSIONS 25 1 1
ORIGIN 0.2 2.5 1.7
SPACING 0.4 5 3.4
POINT_DATA 25
SCALARS count float 
LOOKUP_TABLE default 
214.826 367.225 429.83 432.178 423.979 422.074 421.99 422.695 422.292 421.973 422.456 424.133 424.562 424.204 420.311 404.276 347.832 236.165 110.488 30.901 4.26115 0.227346 0.00139642 0 0 SCALARS RHO float 
LOOKUP_TABLE default 
0.537064 0.918062 1.07457 1.08044 1.05995 1.05519 1.05498 1.05674 1.05573 1.05493 1.05614 1.06033 1.0614 1.06051 1.05078 1.01069 0.869581 0.590412 0.276219 0.0772526 0.0106529 0.000568365 3.49106e-06 0 0 

VECTORS VAVG float 
0.00075414 0.00378476 0.00030923 0.00203867 0.0330398 0.00128276 0.00296755 0.0927991 0.00250426 0.00336301 0.185298 0.00302705 0.00201267 0.305197 0.00175452 -0.000162486 0.42634 0.000427434 -0.00205193 0.53132 0.000746573 -0.00306087 0.630126 0.00014442 -0.00365148 0.725511 -0.00266634 -0.00423293 0.821194 -0.00634662 -0.00520075 0.918735 -0.00798618 -0.00552526 1.01394 -0.00743892 -0.00452589 1.10625 -0.00704534 -0.00399969 1.19395 -0.00518192 -0.00451896 1.27956 -0.00114613 -0.00534947 1.36268 0.00333991 -0.00492814 1.43373 0.00577869 -0.00398514 1.48645 0.00650448 -0.00253517 1.52523 0.00884401 -0.0047602 1.51921 0.0159601 0.000546957 1.02155 0.00826521 0.000808241 0.187108 0.00518884 0.00114841 0.0200906 0.00156147 0 0 0 0 0 0 

