# vtk DataFile Version 2.0
Some data
ASCII
DATASET STRUCTURED_POINTS
DIMENSIONS 5 3 5
ORIGIN 0.5 0.833333 0.34
SPACING 1 1.66667 0.68
POINT_DATA 75
SCALARS RHO float 
LOOKUP_TABLE default 
0.369847 0.277827 0.533002 0.538702 0.565903 0.361363 0.339002 0.385712 0.296751 0.530869 0.32024 0.254479 0.650147 0.579504 0.488833 0.460443 0.538805 0.602397 0.620417 0.59525 0.358394 0.62346 0.48409 0.585838 0.643278 0.360443 0.533652 0.565479 0.469664 0.587865 0.463428 0.651667 0.630492 0.616167 0.610212 0.431504 0.616206 0.352646 0.537299 0.606253 0.416739 0.527401 0.615315 0.40406 0.617828 0.383543 0.420403 0.477948 0.60847 0.597019 0.439496 0.501145 0.482794 0.512663 0.596136 0.506103 0.457545 0.613477 0.484641 0.561064 0.331468 0.441453 0.505473 0.544023 0.279633 0.373064 0.507464 0.500042 0.534723 0.369895 0.414031 0.395133 0.260113 0.415014 0.384657 

VECTORS VAVG float 
-0.000435973 0.000102688 0.000516035 -0.0148382 0.00115318 0.0183039 -0.0104368 0.00917978 0.0234435 -0.00957811 0.00377674 0.0226923 -0.0115627 -0.0014785 0.0161823 -0.000116957 -1.26269e-06 0.000228265 -0.00747915 -0.00513114 0.0104636 -0.0127178 -0.0142239 0.0136764 -0.00699492 -0.00103884 0.018416 -0.00820798 0.0036033 0.0141689 -7.82372e-05 4.04418e-06 0.000298397 -0.00332855 0.0013023 0.0135698 -0.00433211 0.00138063 0.0158406 -0.00161928 0.000491237 0.0281448 -0.0128289 0.00208779 0.0228222 -0.00319712 0.000753042 0.00378423 -0.0164456 0.0033925 0.0198432 -0.0120503 0.00129978 0.0178853 -0.0108099 0.000453968 0.0238061 -0.0126134 0.0009141 0.0211273 -0.000876138 -4.83015e-06 0.00172138 -0.00575988 -0.000496048 0.0128005 -0.0126424 -0.0137198 0.0169964 -0.00840228 -0.00314074 0.0183902 -0.00955926 0.00195546 0.0131935 0.000266171 -0.000143382 0.0015885 0.00151377 -0.000465799 0.0101914 -0.00509671 -0.00189264 0.0137931 -0.00668629 -0.000462719 0.0239288 -0.0175647 0.00111642 0.0222201 -0.00115243 0.000456313 0.00165257 -0.009488 0.00692705 0.0185088 -0.0153196 -0.00197642 0.0160408 -0.0157133 -0.00235417 0.0228598 -0.0132693 0.00103673 0.0215742 3.72143e-05 0.000416194 0.000609188 -0.000386999 0.00708434 0.0128114 -0.00905913 0.000902271 0.0228982 -0.0132528 -0.00121948 0.0161851 -0.0147811 0.00211199 0.0123713 0.000171802 -8.65268e-05 0.000263432 -0.00286599 0.00548077 0.0102426 -0.0106919 0.00441865 0.0150903 -0.0109101 0.000720949 0.0198107 -0.0131454 -0.000797359 0.0219256 -9.58804e-05 0.000146535 0.000312045 -0.00535341 0.00712172 0.0191387 -0.0143224 -0.000993302 0.0211221 -0.0179494 -0.00312413 0.0209817 -0.0176198 0.00206501 0.0187326 1.17224e-05 6.61156e-05 8.66511e-05 -0.00361781 0.00402102 0.0142757 -0.00786879 0.0041599 0.0280658 -0.0144867 0.00397535 0.0154184 -0.0163493 0.00728266 0.0124161 -7.07292e-05 4.46498e-05 -7.7473e-05 -0.00804522 0.00765295 0.009932 -0.0124982 0.00708424 0.0173255 -0.0112846 0.00424802 0.0135679 -0.0117922 -0.000240957 0.017447 -0.000753393 0.000737616 0.00121467 -0.00750994 0.00481307 0.02074 -0.00524108 -0.0013951 0.0262568 -0.0138212 -0.000167393 0.0218146 -0.0157757 0.00205658 0.0194103 -8.95947e-05 0.000298707 0.00038762 -0.0115136 0.000299737 0.0135005 -0.0159001 0.00439144 0.0307917 -0.0142186 0.00785688 0.0172624 -0.0152121 0.00832213 0.0138314 -0.00248215 0.00362703 0.000241786 -0.00998531 0.0123179 0.00382298 -0.0143947 0.00808918 0.0192056 -0.0109496 0.00439686 0.011671 -0.0122126 0.0002512 0.016083 

