# vtk DataFile Version 2.0
Some data
ASCII
DATASET STRUCTURED_POINTS
DIMENSIONS 5 3 5
ORIGIN 0.5 0.833333 0.34
SPACING 1 1.66667 0.68
POINT_DATA 75
SCALARS RHO float 
LOOKUP_TABLE default 
0.381076 0.460023 0.611582 0.606674 0.525046 0.359862 0.196839 0.361724 0.507824 0.509598 0.363708 0.385874 0.562588 0.519902 0.446254 0.396108 0.586049 0.607845 0.484549 0.579456 0.374303 0.583494 0.608609 0.603644 0.57443 0.559685 0.497828 0.583486 0.551717 0.608698 0.476396 0.549826 0.591372 0.439859 0.591055 0.476227 0.639721 0.666673 0.609613 0.584844 0.498041 0.525294 0.634217 0.577055 0.566629 0.43748 0.503386 0.510889 0.543584 0.551604 0.509609 0.471086 0.584224 0.630339 0.585842 0.480601 0.545624 0.641208 0.59504 0.565734 0.331288 0.52401 0.158385 0.227282 0.283921 0.442716 0.500799 0.536971 0.435332 0.437607 0.523181 0.545385 0.4287 0.328131 0.478332 

VECTORS VAVG float 
0.000116559 0.00147696 0.000363963 0.00519674 0.0477063 0.0044097 0.0242611 0.1941 -0.0126389 0.0237921 0.283832 -0.0273761 0.0256711 0.355893 -0.0173917 6.9413e-05 0.000422004 1.14485e-05 -0.0150283 0.0577694 -0.00581904 -0.114565 0.204866 -0.0245117 -0.116551 0.309269 -0.0327078 -0.029903 0.367787 -0.0236667 -0.00141708 -0.00147617 -0.000303012 -0.0143532 0.0119734 -0.0570995 -0.0002643 0.133478 -0.0711309 0.0648247 0.277568 -0.0178114 0.0796176 0.35189 -0.0265562 0.00012102 0.00126057 0.00033101 0.00439267 0.0491102 0.00723264 0.0151377 0.141136 -0.0133795 0.0276358 0.257029 -0.00574156 0.0206594 0.370192 -0.0192198 0.0010449 0.00660289 0.000138181 -0.00587409 0.0622783 -0.00442646 -0.0383906 0.166436 -0.0210236 -0.00518041 0.302059 -0.0283811 0.0256731 0.441531 -0.0181485 0.000519262 0.00202193 -0.00441219 0.00449061 0.0377965 -0.0617945 0.0169118 0.134433 -0.0657981 0.0545355 0.238124 -0.0382656 0.0876493 0.332621 -0.0266731 -0.00253831 -0.00199076 0.00207182 -0.00430301 0.0305898 0.0182355 0.00311053 0.117319 -0.0101385 0.0246814 0.25046 -0.0116561 0.0215162 0.371254 -0.0159417 -0.00729985 0.0144785 0.00190595 -0.0323167 0.0957814 -0.00191477 -0.0364501 0.183822 -0.0289268 0.0293116 0.297357 -0.0258292 0.0383229 0.45966 -0.00486377 0.00254506 0.0029739 -0.000616389 0.0313846 0.0794685 -0.0684991 0.0489919 0.175598 -0.0525979 0.0630406 0.225582 -0.0507308 0.0848919 0.305033 -0.0420326 -0.00415063 -0.00439469 0.00266747 -0.0117911 0.00525549 0.0165335 0.00913423 0.135552 -0.0104962 0.0160769 0.297565 -0.0409876 0.021508 0.367937 -0.0163809 -0.0115331 0.0195213 0.00297961 -0.054401 0.114889 0.00404431 -0.0901797 0.219481 -0.0468264 -0.0228138 0.283402 -0.0243331 0.0172669 0.408287 -0.00210616 0.00439094 0.00353435 0.00210842 0.0277848 0.0764359 -0.0609309 0.0591873 0.196978 -0.0602235 0.0779457 0.197966 -0.0423129 0.0377902 0.321818 -0.0277064 -0.000602979 -0.000593681 0.00102183 -0.00982377 -0.00631126 0.017364 0.00638645 0.130599 -0.0106755 0.00192524 0.306726 -0.0453462 -0.00300518 0.356485 -0.0238922 -0.00211357 0.000851731 0.00118659 -0.0446075 0.0609073 0.0030578 -0.134719 0.204328 -0.0166915 -0.0832742 0.246135 -0.0106612 -0.00498598 0.325293 -0.00071069 -0.00124364 -0.00887286 0.00840578 -0.00473986 0.0309226 -0.043392 0.0279223 0.172639 -0.0649374 0.0645102 0.176674 -0.0260074 0.0191245 0.335394 -0.0601895 

