# vtk DataFile Version 2.0
Some data
ASCII
DATASET STRUCTURED_POINTS
DIMENSIONS 5 3 5
ORIGIN 0.5 0.833333 0.34
SPACING 1 1.66667 0.68
POINT_DATA 75
SCALARS RHO float 
LOOKUP_TABLE default 
0.36399 0.328158 0.477279 0.466965 0.601731 0.370268 0.25846 0.419 0.378188 0.216541 0.316686 0.310647 0.418928 0.617863 0.470099 0.442478 0.625893 0.630499 0.524778 0.518056 0.429535 0.641296 0.597265 0.61291 0.498472 0.371087 0.576852 0.597574 0.594656 0.585904 0.469249 0.60398 0.563248 0.539094 0.610973 0.495092 0.70605 0.642453 0.605192 0.637226 0.464452 0.584873 0.5035 0.470867 0.583092 0.436039 0.578597 0.535409 0.594072 0.578177 0.500196 0.578018 0.62191 0.576599 0.630536 0.53762 0.548128 0.591571 0.549725 0.579958 0.338898 0.385861 0.349787 0.255815 0.19942 0.389631 0.554013 0.530884 0.373787 0.543673 0.479937 0.376608 0.560275 0.291649 0.476113 

VECTORS VAVG float 
1.27018e-05 4.92108e-05 5.22566e-06 0.00118268 -0.00904719 -0.0150827 0.0158687 0.0463059 -0.0257025 0.0235997 0.147205 -0.0409008 0.0130799 0.314101 0.0102899 0.000297847 0.000297534 -1.06218e-05 0.0117032 0.0184869 -0.0088908 0.00435419 0.0290686 -0.00515958 -0.00355798 0.112152 0.00540762 0.00505194 0.253812 0.0153992 5.48508e-05 0.000177495 -4.79286e-07 0.0055706 0.016929 -0.000393806 0.00143052 0.0385619 0.00424971 -0.00155858 0.114438 0.0248613 0.0294768 0.235639 0.0397005 0.000173032 0.000920773 0.000118398 0.00167517 0.00456999 -0.00429428 0.00557641 0.0369445 -0.001119 0.0209224 0.0848283 0.00362161 0.000429712 0.267513 0.018634 0.00200212 0.00201337 -7.60207e-05 0.00786712 0.0169593 -0.00588393 -0.00587926 0.0282933 -0.0070043 -0.0233041 0.125646 0.00711417 -0.0130982 0.196164 0.0210528 -0.000443267 0.00163882 0.00160159 0.00145737 0.013641 0.00528956 -0.00841242 0.0340891 0.00602982 -0.0494593 0.127599 0.00536041 0.0108131 0.236311 0.0308149 0.000622087 0.00120992 -5.68128e-05 0.00392706 0.0158816 -0.00175782 0.00438417 0.0305657 0.0055679 0.00819152 0.0683561 0.00232596 0.0158193 0.204181 0.00214007 0.00188789 0.00236627 -4.70776e-06 0.00690648 0.0204795 -0.00464803 -0.00638532 0.0276898 -0.00281289 -0.038178 0.116877 0.0213552 0.00432109 0.230979 0.0171215 0.000151529 0.00117884 0.00130448 0.00190134 0.00934182 0.00713837 0.00201911 0.0248055 0.0120119 -0.00669744 0.143481 0.0213621 0.028261 0.182952 0.0147958 0.00138368 0.00241129 -0.000197979 0.00989764 0.0193892 0.00566907 0.0318762 0.0359864 0.0353543 0.0204083 0.0639618 0.00247125 -0.0128821 0.234892 0.00250929 0.0021863 0.00274478 0.000114657 0.00982688 0.0234822 -0.00365962 0.015701 0.0283081 0.00171722 0.0158793 0.0938535 0.04831 0.056616 0.243039 0.00589521 0.000811907 0.000841933 0.00108484 0.00765901 0.0103891 0.00610415 0.0067238 0.0278155 0.00979939 -0.00949418 0.091536 0.0332849 0.0439164 0.164096 0.0294369 0.000509969 0.00111138 0.00012086 0.0179374 0.0217434 0.012075 0.0519183 0.0440314 0.0497899 0.0366964 0.0496445 0.0109681 -0.0485373 0.280869 0.015234 0.000524744 0.00253221 -0.000541625 0.00542314 0.0304479 -0.00698944 0.0117781 0.0349643 -0.00845809 0.0228884 0.0953546 0.057743 0.0684116 0.203756 0.00836594 -0.000568702 0.00871678 0.010217 0.0138633 0.0242531 0.00572065 0.0179198 0.0296742 0.00406979 -0.00232654 0.0856519 0.0388683 0.0334808 0.190342 0.0463614 

