# vtk DataFile Version 2.0
Some data
ASCII
DATASET STRUCTURED_POINTS
DIMENSIONS 5 3 5
ORIGIN 0.5 0.833333 0.34
SPACING 1 1.66667 0.68
POINT_DATA 75
SCALARS RHO float 
LOOKUP_TABLE default 
0.371071 0.367321 0.567644 0.602686 0.257725 0.361905 0.422187 0.495422 0.403393 0.453394 0.322795 0.265245 0.37063 0.376456 0.501363 0.417041 0.594442 0.561034 0.578255 0.586563 0.33724 0.59156 0.316285 0.576895 0.620639 0.369499 0.623213 0.518362 0.364643 0.561613 0.438904 0.612846 0.584606 0.658259 0.606082 0.434309 0.574426 0.344225 0.489873 0.571804 0.424341 0.63041 0.622842 0.374555 0.573441 0.378563 0.406314 0.465081 0.553075 0.602226 0.435268 0.397915 0.637714 0.496833 0.560821 0.357302 0.376516 0.581953 0.549433 0.533217 0.319143 0.378056 0.373706 0.389935 0.567131 0.360081 0.340873 0.421152 0.408104 0.517017 0.364813 0.503191 0.581902 0.46154 0.29072 

VECTORS VAVG float 
-0.000227511 4.67703e-05 0.000475324 -0.00636691 0.000555852 0.0191467 -0.00659833 -0.00648232 0.029439 -0.00608589 -0.00857668 0.0355282 -0.00701085 -0.00353069 0.0375267 -4.52864e-05 -1.46742e-05 0.00029202 -0.00342956 -0.00100793 0.0149267 -0.00703617 -0.00344615 0.0166208 -0.0141656 -0.00300997 0.027029 -0.0209943 -0.00559182 0.0227049 -0.000306989 -0.00034681 0.00060849 -0.00887535 -0.00924772 0.0209654 -0.0165033 -0.00770925 0.0291493 -0.00737125 -0.00787067 0.0272784 -0.00494592 -0.00625177 0.023322 -0.000709491 0.000145853 0.0014823 -0.00494469 0.0024631 0.0140888 -0.00784953 -0.00740637 0.0214199 -0.0107072 -0.00812072 0.0345497 -0.0104834 -0.00271054 0.0321475 -2.3639e-06 8.19486e-05 0.000777429 -0.000596183 0.00198742 0.0164562 -0.00817888 -0.00220212 0.0198516 -0.0161595 -0.000323868 0.0364243 -0.0201057 -0.00770298 0.0247539 -0.00239464 0.000658271 0.00347624 -0.00666765 -0.00828913 0.0237758 -0.00232059 -0.00629255 0.0280322 -0.0121847 -0.00749845 0.0285124 -0.00949784 -0.00482541 0.0249293 0.000193266 0.000203971 -5.94885e-05 0.00554318 0.00693991 0.00100125 -0.00761143 -0.00213996 0.019755 -0.0126982 -0.00594361 0.0329053 -0.0117668 -0.00512186 0.0325974 0.000229626 0.000350347 0.000920893 0.00131575 0.00304657 0.0178495 -0.0210963 -0.018087 0.0369071 -0.0211735 0.00397344 0.0559803 -0.0188938 -0.00859554 0.0268084 -0.00454345 0.00548961 0.00396268 -0.0120502 0.000404704 0.0224336 0.00124447 0.00147041 0.0226856 -0.00298938 0.00241425 0.0226532 -0.0146743 -0.00417898 0.0228294 1.54515e-05 6.70487e-06 -7.13673e-06 0.00389637 -0.000245391 0.00941503 -0.00941993 -0.00815761 0.0284937 -0.00919571 -0.0121596 0.0338918 -0.00975805 -0.00657253 0.0365213 -6.08346e-05 -1.35e-05 1.23493e-05 -0.0120852 0.000341756 0.0188698 -0.0236462 0.0013057 0.0464715 -0.0256671 0.00960811 0.0399677 -0.0178867 -0.00601585 0.0249236 -0.00108611 0.00117512 0.00080667 -0.0119453 -0.000601166 0.0177279 -0.00574331 0.00561981 0.0243692 -0.00737925 0.00815215 0.0271366 -0.0164292 -0.00207098 0.0225194 -2.95937e-05 0.000202629 0.00025241 -0.00175384 -0.00110853 0.0198108 -0.00982336 -0.0133036 0.0287173 -0.00119273 -0.0166119 0.0363858 -0.00440515 -0.00439208 0.0351717 -3.52607e-06 2.13517e-07 9.21567e-07 -0.0250944 0.00240129 0.0168501 -0.0279694 0.0118619 0.0412717 -0.0282897 0.00646238 0.028923 -0.0214699 -0.00595887 0.023566 -0.000784536 0.00203835 0.000145242 -0.00449852 0.00818016 0.0097246 0.000565168 0.00366676 0.0344155 -0.00721469 0.00331506 0.0276145 -0.0161209 -0.00199352 0.0226203 

