# vtk DataFile Version 2.0
Some data
ASCII
DATASET STRUCTURED_POINTS
DIMENSIONS 5 3 5
ORIGIN 0.5 0.833333 0.34
SPACING 1 1.66667 0.68
POINT_DATA 75
SCALARS RHO float 
LOOKUP_TABLE default 
0.370455 0.301064 0.553335 0.568928 0.540787 0.361573 0.364358 0.435165 0.319738 0.424946 0.32548 0.214311 0.415223 0.551362 0.508669 0.437927 0.565216 0.573558 0.606075 0.598466 0.347506 0.617273 0.404137 0.577827 0.632794 0.386454 0.584431 0.554995 0.431549 0.572663 0.446483 0.639694 0.622653 0.630762 0.597524 0.432651 0.605801 0.346816 0.522242 0.586702 0.445896 0.641383 0.629337 0.390927 0.601311 0.379881 0.397826 0.473934 0.585103 0.58526 0.438516 0.468464 0.4752 0.50045 0.574804 0.371275 0.420304 0.608309 0.499382 0.546831 0.324532 0.417029 0.476475 0.49508 0.262551 0.372986 0.480414 0.516921 0.538957 0.488974 0.375406 0.468266 0.492128 0.382548 0.349859 

VECTORS VAVG float 
-0.000379556 0.000194107 0.000503895 -0.0112808 0.00826236 0.0211262 -0.00699326 0.0151831 0.0272168 -0.00607772 0.0114502 0.025323 -0.0123479 0.0139272 0.0286849 -0.000144047 5.90283e-05 0.000323699 -0.00776745 0.00403271 0.0179246 -0.00852991 0.00639066 0.0175681 -0.0147781 0.0111023 0.0191688 -0.0148296 0.00809463 0.0161333 -0.00044492 -0.000273009 0.00061188 -0.0118043 -0.0019641 0.0199706 -0.0119052 0.00953988 0.0264779 -0.0174335 0.00770716 0.0237021 -0.0164604 0.00757415 0.0167032 -0.0019396 0.000991921 0.002575 -0.0129887 0.00835072 0.0190998 -0.0089826 0.0117342 0.0178453 -0.00894921 0.00726622 0.0243841 -0.013344 0.00933335 0.0236399 -0.000695698 0.000317501 0.00164017 -0.00666289 0.0053035 0.0206809 -0.00908881 0.00784471 0.0193246 -0.0130737 0.00982152 0.0192944 -0.0141413 0.00603002 0.0170505 -0.00251202 -0.000631232 0.00608918 -0.0126915 -0.00108275 0.0267455 -0.00836504 0.0103015 0.0254345 -0.0104012 0.00611416 0.0203602 -0.0118116 0.00653176 0.0160039 -0.00036677 0.000371125 0.000806007 -0.00629215 0.00965162 0.0182739 -0.0133245 0.00949751 0.0158141 -0.0155406 0.00493566 0.0225197 -0.0179002 0.0112795 0.0202708 0.000120685 0.000507147 0.00104535 0.000593227 0.00870923 0.020157 -0.00315584 0.00751659 0.0263544 -0.00764143 0.00526572 0.0194002 -0.0105612 0.00458991 0.0185232 -0.00178336 -0.000303475 0.0100871 -0.00712954 0.00461693 0.0269259 -0.00460406 0.0124173 0.0232338 -0.00578657 0.00740096 0.0190688 -0.0082187 0.00556816 0.0166996 -1.83804e-05 5.17259e-05 9.50837e-05 -0.00306477 0.00970468 0.0208892 -0.0118345 0.0078111 0.0245837 -0.0169926 0.00550773 0.0223021 -0.0234195 0.0132012 0.0149884 1.06482e-05 4.48887e-05 0.000100713 -0.00253065 0.00867487 0.0181028 -0.0034905 0.00843539 0.0243558 -0.00489785 0.00315965 0.0186793 -0.00470566 0.0100928 0.019547 -0.000532569 2.39167e-05 0.00318147 -0.00593098 0.00898334 0.0198809 -0.00956914 0.0148997 0.0251013 -0.00874656 0.0119861 0.0180532 -0.0105262 0.00530398 0.0139924 -0.000382464 0.000599666 0.000928826 -0.00571716 0.0119218 0.0254792 -0.0036271 0.00696163 0.0301154 -0.0102381 0.00457488 0.0228253 -0.0161775 0.0110572 0.0179551 -0.00051893 0.000580646 -1.77908e-05 -0.0103337 0.011532 0.0156238 -0.00824231 0.0115214 0.0145493 -0.00604037 0.00299027 0.0165757 -0.00586703 0.0103145 0.0211684 -0.00259682 0.00397956 -0.000149967 -0.0107486 0.0152922 0.00638032 -0.0118161 0.0155204 0.0277102 -0.00844946 0.0119034 0.0163412 -0.0119177 0.00478217 0.0133756 

