# vtk DataFile Version 2.0
Some data
ASCII
DATASET STRUCTURED_POINTS
DIMENSIONS 5 3 5
ORIGIN 0.5 0.833333 0.34
SPACING 1 1.66667 0.68
POINT_DATA 75
SCALARS RHO float 
LOOKUP_TABLE default 
0.370845 0.321931 0.553957 0.585773 0.531104 0.361297 0.379183 0.456444 0.35093 0.436363 0.325097 0.230684 0.427024 0.528896 0.527861 0.429377 0.579135 0.566115 0.594159 0.594773 0.342327 0.608418 0.380525 0.57123 0.632774 0.385196 0.601231 0.551205 0.409258 0.571924 0.442334 0.629637 0.612222 0.636162 0.593306 0.43332 0.598038 0.363453 0.511818 0.577884 0.43928 0.627647 0.632112 0.388514 0.593793 0.379048 0.396538 0.468803 0.570968 0.580747 0.437799 0.451759 0.487338 0.479983 0.568476 0.362593 0.393166 0.596525 0.509517 0.543471 0.322105 0.406388 0.453603 0.465086 0.251875 0.372885 0.444879 0.519985 0.524771 0.495038 0.371089 0.469317 0.488068 0.362593 0.331196 

VECTORS VAVG float 
-0.000353075 0.000194553 0.000551484 -0.0101778 0.0062761 0.0203937 -0.00828221 0.00493235 0.0213825 -0.00929802 0.00311108 0.0207649 -0.0121061 0.00494676 0.0201876 -0.000118488 0.000113245 0.000233462 -0.00728279 0.00373342 0.0155684 -0.00857366 0.00144861 0.0146172 -0.012497 0.00153292 0.0205429 -0.0145907 -0.00095534 0.00986882 -0.000232681 -0.000100314 0.000435534 -0.00795922 -0.00112743 0.0136743 -0.00681524 0.00148447 0.0203672 -0.0146877 0.00123625 0.0156982 -0.0176669 0.000837597 0.0109693 -0.00149116 0.000821666 0.00232911 -0.0112584 0.00684941 0.0197182 -0.00873263 0.00387045 0.0154897 -0.0106764 0.000183521 0.0202788 -0.0128988 -0.000573484 0.0182468 -0.000454549 0.000469652 0.00102875 -0.00561783 0.00515081 0.0186575 -0.00827757 0.002359 0.0166911 -0.0100303 0.00189914 0.021156 -0.0133155 -0.000835371 0.0113284 -0.00148708 -0.000300693 0.00394735 -0.00840768 5.90708e-05 0.0171306 -0.00535003 0.00315486 0.020259 -0.00988218 -0.000643231 0.0172017 -0.0121727 0.000242743 0.0132054 -0.000190882 0.000179129 0.000610142 -0.00484174 0.00522955 0.0180659 -0.0113983 0.00553758 0.014742 -0.0136985 0.00152261 0.0197735 -0.0145416 0.0011464 0.0166566 9.79439e-05 0.00026038 0.00113061 0.000766041 0.00447958 0.0202446 0.00160495 0.00174259 0.0223831 -0.00132035 0.00217452 0.0261391 -0.0123227 0.00118144 0.0109151 -0.000478292 -0.000215693 0.00653871 -0.00526253 0.00527662 0.0169574 -0.00995352 0.00890473 0.0148585 -0.0123522 0.00319359 0.0130397 -0.00967305 -0.000727491 0.0165462 -7.23189e-06 1.32688e-05 4.849e-05 -0.0024758 0.00766504 0.0191235 -0.0119266 0.00673494 0.0192442 -0.0149289 0.00281112 0.0205885 -0.0159512 0.00602418 0.0146043 5.73121e-06 1.48799e-05 6.84486e-05 -0.0105041 0.0103459 0.020925 -0.00746003 0.0024779 0.0266441 -0.010737 0.00528419 0.0183297 -0.0153518 0.0082309 0.0119769 -8.05337e-05 -1.47463e-05 0.00163377 -0.00517053 0.0076882 0.0129031 -0.0130605 0.0139657 0.0178181 -0.0124604 0.0116199 0.00868849 -0.012385 0.000569416 0.0126618 -0.000238144 0.000254537 0.000616302 -0.00522072 0.0103527 0.0213347 -0.00772289 0.00612529 0.0209907 -0.0118802 0.00289755 0.0205047 -0.0128786 0.00549312 0.016378 -0.000217094 0.000185356 -2.17757e-05 -0.026169 0.0195031 0.0220034 -0.0245808 0.00308243 0.0367651 -0.019287 0.00413213 0.0154295 -0.0183654 0.00653295 0.012392 -0.00061533 0.00128225 1.68512e-06 -0.00288322 0.00737211 0.0065434 -0.00632893 0.0162646 0.0261587 -0.00983868 0.0118516 0.00644806 -0.0128655 0.000849582 0.0110471 

