# vtk DataFile Version 2.0
Some data
ASCII
DATASET STRUCTURED_POINTS
DIMENSIONS 5 3 5
ORIGIN 0.5 0.833333 0.34
SPACING 1 1.66667 0.68
POINT_DATA 75
SCALARS RHO float 
LOOKUP_TABLE default 
0.364526 0.349174 0.630973 0.473231 0.31139 0.369772 0.360977 0.474634 0.525388 0.424743 0.364014 0.374772 0.475504 0.399756 0.53217 0.438201 0.600941 0.48263 0.602101 0.602284 0.372086 0.590574 0.537819 0.576374 0.541416 0.548492 0.504914 0.581664 0.643168 0.657108 0.47584 0.606798 0.305526 0.437425 0.538978 0.436897 0.651555 0.536801 0.594338 0.510212 0.52325 0.528434 0.538472 0.579991 0.631515 0.429787 0.627982 0.487575 0.584975 0.636162 0.463724 0.606127 0.452578 0.601481 0.517216 0.515137 0.51204 0.372017 0.579896 0.602154 0.325501 0.45207 0.327074 0.497143 0.554208 0.370222 0.491307 0.53232 0.565941 0.452268 0.494916 0.527441 0.510623 0.539507 0.387037 

VECTORS VAVG float 
-0.000202105 0.000637732 -1.44703e-07 -0.0376624 0.110536 0.00425939 -0.0526761 0.136369 0.000277977 -0.0563583 0.155789 -0.00941708 -0.0796183 0.231885 -0.0411178 -0.000384433 0.00197668 0.000190263 -0.0103075 0.092168 0.00634233 -0.0126214 0.157808 0.0336009 -0.00231575 0.153189 0.0650109 0.0300902 0.232071 0.0557152 0.000478506 0.000659155 -8.7227e-05 0.0259664 0.040455 -0.00862816 0.022975 0.0961992 -0.0062027 0.020348 0.165588 0.0188424 0.0620436 0.267418 0.0574096 -0.00292708 0.00927498 1.99936e-06 -0.024679 0.083283 0.00690768 -0.0380449 0.130139 0.0177325 -0.0454952 0.170597 -0.00357166 -0.0425322 0.235175 -0.0332429 7.7929e-05 0.00952442 2.73591e-05 -0.00406702 0.0855066 0.0059911 -0.0121076 0.140541 0.0436016 0.00466506 0.16384 0.0547409 0.0163913 0.223991 0.0381419 0.00109715 0.00290931 -0.0010614 0.0238025 0.0540052 -0.0142986 0.0203395 0.100282 0.0033892 0.0218837 0.155971 0.0144392 -0.00377978 0.240715 0.0478036 -0.00340788 0.00615906 0.00137031 -0.0312999 0.0679273 0.020993 -0.0314174 0.131998 0.0456961 -0.023122 0.210246 0.0125045 -0.000607743 0.228632 -0.0111254 -0.000689578 0.00388478 0.000412698 -0.0125754 0.0693339 0.0187931 -0.00467753 0.115258 0.0558197 0.0203628 0.167942 0.0499365 0.00366295 0.204478 0.0371378 0.00141324 0.00148609 -0.000800614 0.0216758 0.0441381 -0.00746645 0.0153829 0.098809 0.0185419 -0.00357338 0.168929 0.00583266 -0.025002 0.231498 0.0416359 -0.0050233 0.0065962 0.00278336 -0.0314757 0.059962 0.0155781 -0.025006 0.102964 0.0038808 -0.0153363 0.175455 0.0360817 0.00113642 0.224593 0.00478526 -0.00176445 0.00449977 0.0010998 -0.0194035 0.0566018 0.0167493 0.0063128 0.106888 0.0395526 0.0397513 0.159967 0.0617632 0.0019787 0.194725 0.0558896 0.00142344 0.00112749 -0.000686556 0.0174809 0.0427413 -0.00396919 0.00667522 0.118846 0.00392668 -0.0229253 0.183614 -0.00670454 -0.0148547 0.219925 0.0317922 -0.000294607 0.00288377 0.000835722 -0.0105616 0.0734623 0.0161439 -0.024165 0.0917544 -0.00340877 -0.0312846 0.139151 0.0269808 -0.026793 0.233653 -0.0339039 -0.000277175 0.00160502 0.000752832 -0.01285 0.0555037 0.0195013 0.00278485 0.0903329 0.0317201 0.0373031 0.156895 0.0675613 0.00450506 0.212292 0.0739283 0.00059261 0.00462036 -0.000101211 0.00442041 0.0706965 0.00540578 0.0114184 0.134456 0.0081868 -0.0144012 0.145557 0.0297611 -0.0292798 0.196087 0.0309557 

