# vtk DataFile Version 2.0
Some data
ASCII
DATASET STRUCTURED_POINTS
DIMENSIONS 5 3 5
ORIGIN 0.5 0.833333 0.34
SPACING 1 1.66667 0.68
POINT_DATA 75
SCALARS RHO float 
LOOKUP_TABLE default 
0.363501 0.345346 0.47065 0.60023 0.476274 0.362879 0.292326 0.584323 0.587306 0.485928 0.344937 0.487334 0.382965 0.371506 0.310248 0.421422 0.589318 0.502405 0.646718 0.583484 0.390322 0.586897 0.645811 0.497271 0.573091 0.447372 0.534664 0.453618 0.586547 0.649951 0.450793 0.634411 0.460222 0.525087 0.525541 0.447898 0.621383 0.587728 0.590514 0.616255 0.508723 0.584786 0.508202 0.569651 0.613377 0.402152 0.544282 0.497988 0.53393 0.582817 0.459506 0.594601 0.503401 0.624128 0.55835 0.525141 0.579676 0.534105 0.618979 0.616137 0.316258 0.258932 0.362213 0.402826 0.474316 0.369721 0.539944 0.472276 0.451175 0.362019 0.478378 0.418244 0.56609 0.493259 0.61198 

VECTORS VAVG float 
2.617e-06 0.000206666 1.42489e-05 0.00160665 0.0597212 -0.000340986 -0.00209873 0.0886094 0.00406284 -0.0224994 0.0976628 0.0125133 -0.0138396 0.119522 0.0180048 0.000186241 0.000548252 4.5388e-06 0.00895483 0.0532143 -0.00383951 0.0140745 0.0818662 0.00453621 0.00623604 0.0960819 0.0190413 -0.0119695 0.133928 0.0277313 -0.00361351 0.00663047 -0.00112212 -0.0277954 0.072738 -0.0106514 -0.0207555 0.0720351 0.00586565 -0.0257787 0.0897154 0.016176 -0.0136891 0.126778 0.0149058 5.16176e-05 0.00287647 3.98211e-07 0.000297303 0.0366883 0.000873622 0.000280414 0.0705205 0.0101644 -0.00960428 0.0934747 0.02044 -0.0046539 0.119617 0.0121155 0.0020098 0.00549258 1.11221e-05 0.0100724 0.0398823 -0.0031538 0.00394086 0.0710383 0.000579154 0.00102086 0.0864452 0.0147189 0.00429729 0.142035 0.0279842 -0.0163536 0.0178044 -0.00494118 -0.0277957 0.0572335 -0.0158462 -0.0229361 0.0656311 -0.00762212 -0.0216915 0.0937766 0.0151145 -0.0118827 0.130683 0.0134218 -0.000138032 0.00172445 3.30823e-05 -0.0028925 0.0327643 0.00224168 -0.00676316 0.0530447 0.0126935 -0.00840726 0.0908032 0.0248879 -0.00219816 0.122544 0.00897589 0.000995079 0.0028522 -0.00029997 0.00817931 0.0355868 -0.00569815 -0.00127806 0.0587862 -0.000893227 0.0055549 0.0847821 0.0119218 0.0232738 0.128913 0.0352734 -0.00924522 0.00997634 -0.00301848 -0.0109466 0.0249938 -0.0139301 -0.0160143 0.0538392 -0.0215024 -0.0119616 0.0991013 0.00724511 -0.0114978 0.13887 0.0117225 -0.000292886 0.00227978 2.99235e-05 -0.00174363 0.037809 -0.000554086 -0.00124258 0.0585736 -0.00196757 -0.0140593 0.0904393 0.014183 -0.0119423 0.124688 -0.00401267 0.000825541 0.00257493 -0.000602289 0.00628984 0.0342956 -0.00521659 0.00751589 0.0524817 0.0334 0.00458967 0.0862628 0.0104664 0.0195986 0.12154 0.0359501 0.000398114 0.000401908 -0.000437137 -0.00257873 0.014294 -0.00478171 -0.0107547 0.0524697 -0.00132181 -0.0031737 0.100217 0.00339731 -0.0126414 0.140884 0.00924839 0.000126132 0.000316597 3.65674e-05 0.00820805 0.0389828 0.00022137 0.00374168 0.0566211 -0.00669813 -0.00463924 0.0888061 0.017195 -0.00808327 0.108312 0.0114948 -0.000198902 0.000979248 -0.000110273 -0.00435514 0.0350369 -0.00203825 0.0111957 0.0439094 0.0476993 0.000954319 0.0806461 0.00901654 -0.00945583 0.141414 0.0329388 0.000555212 0.00168909 0.000515925 -0.000879194 0.030307 0.00445319 -0.000355635 0.0531094 0.00276399 -0.0113241 0.0985242 0.00684176 -0.0219822 0.136004 0.00806776 

