# vtk DataFile Version 2.0
Some data
ASCII
DATASET STRUCTURED_POINTS
DIMENSIONS 5 3 5
ORIGIN 0.5 0.833333 0.34
SPACING 1 1.66667 0.68
POINT_DATA 75
SCALARS RHO float 
LOOKUP_TABLE default 
0.371182 0.352577 0.563694 0.591906 0.234859 0.361344 0.404264 0.483084 0.385251 0.448638 0.323505 0.250741 0.436228 0.509819 0.517639 0.420614 0.591756 0.563085 0.581154 0.580602 0.337881 0.595929 0.338758 0.554126 0.626484 0.374969 0.618126 0.537744 0.381731 0.565404 0.439558 0.617847 0.595843 0.648218 0.589028 0.433896 0.584018 0.343877 0.516847 0.566849 0.428995 0.63015 0.622338 0.392709 0.584234 0.37864 0.403592 0.472336 0.559393 0.609042 0.436315 0.422053 0.596022 0.521551 0.560047 0.358884 0.381447 0.57662 0.533564 0.539614 0.320284 0.395516 0.432916 0.433829 0.574869 0.360915 0.381743 0.466529 0.458944 0.50516 0.366299 0.492853 0.475031 0.332919 0.313698 

VECTORS VAVG float 
-0.000178814 9.71579e-05 0.000342214 -0.00550069 0.00512029 0.0139706 -0.0058372 0.00561996 0.0152498 -0.0065173 -0.00191211 0.0158372 -0.0126709 -0.00461985 0.0206385 -6.63779e-05 -2.87878e-05 0.000321984 -0.00557412 -0.00278536 0.0200901 -0.0118816 -0.0034755 0.0163775 -0.015807 -0.00396687 0.0184618 -0.0175604 -0.00477187 0.0142414 -0.000206861 -0.000106115 0.00028892 -0.00819526 -0.0021553 0.011516 -0.00936868 -0.00336312 0.0115347 -0.00917443 -0.00412502 0.0151167 -0.0158405 -0.00462805 0.0127737 -0.000604264 0.000328325 0.00115644 -0.00537445 0.00329134 0.012208 -0.00544848 0.00281884 0.00942626 -0.0108345 -0.00479621 0.0200667 -0.0162749 -0.00598178 0.0228953 -0.000124016 -4.39323e-05 0.0010649 -0.00219511 -0.00114265 0.0231982 -0.0103568 -0.00112294 0.0166017 -0.040057 0.00184031 0.0193571 -0.0168236 -0.00529767 0.0152729 -0.00185882 0.00034528 0.00220329 -0.00927125 -0.000912614 0.0137458 -0.00770832 -0.000371089 0.0107956 -0.010153 -0.00605403 0.0141808 -0.0159268 -0.00720281 0.0132773 -4.916e-05 4.25782e-05 0.000297425 -0.00204606 0.00183575 0.0111751 -0.00747132 0.00287292 0.00908763 -0.0126593 -0.00420123 0.0226755 -0.0146466 -0.00535878 0.0190617 0.000200161 0.000103342 0.00131426 0.00326124 0.00135138 0.0211478 -0.0148448 0.00244195 0.0107158 -0.133228 0.0211279 0.0234877 -0.0172067 -0.00421063 0.015742 -0.00270838 0.00178369 0.00204633 -0.00591217 0.00160816 0.0112962 -0.00281842 0.00505313 0.00868421 -0.00440493 -0.00109224 0.0102094 -0.0140633 -0.00863028 0.0172932 -1.00148e-06 3.68372e-06 1.84086e-05 -0.00116164 0.00279979 0.012551 -0.00808915 0.00193513 0.0121214 -0.007074 -0.00930837 0.0237966 -0.0103222 -0.00413677 0.0151985 1.77185e-05 -9.67997e-05 0.000137056 -0.00872341 0.00598972 0.01807 -0.0191043 0.0324993 0.0462309 -0.0704846 0.0322419 0.0402259 -0.012639 -0.000162052 0.0171362 -0.000575667 0.000240654 0.000620777 -0.00280139 0.000641492 0.00999952 -0.00382868 0.0109028 0.0123162 0.000362953 0.00156908 0.0133654 -0.0152498 -0.00445463 0.0142434 -0.000127244 0.000119179 0.000384526 -0.00327837 0.0044321 0.0153207 -0.00512944 0.00334512 0.0156024 0.00356893 -0.0109489 0.025464 -0.00552591 -0.00175035 0.0230669 -0.000150626 -2.69094e-05 5.51325e-05 -0.0318416 0.00853497 0.0204488 -0.0346812 0.0534986 0.0681822 -0.0248876 0.0303989 0.0451946 -0.0163485 -0.00109062 0.0172782 -0.000186925 0.00034265 2.56846e-05 -0.00665641 0.0026603 0.00760868 -0.000141647 0.0148113 0.0210139 0.00305605 -0.00122896 0.0153394 -0.0150254 -0.00296019 0.013148 

