# vtk DataFile Version 2.0
Some data
ASCII
DATASET STRUCTURED_POINTS
DIMENSIONS 5 3 5
ORIGIN 0.5 0.833333 0.34
SPACING 1 1.66667 0.68
POINT_DATA 75
SCALARS RHO float 
LOOKUP_TABLE default 
0.363487 0.350084 0.620561 0.477672 0.260671 0.365755 0.330577 0.514038 0.563691 0.30796 0.365918 0.373753 0.411405 0.393961 0.465726 0.430868 0.609007 0.473782 0.579903 0.607035 0.374344 0.579424 0.580804 0.571871 0.522598 0.550005 0.48995 0.58629 0.648306 0.678192 0.466869 0.601036 0.327887 0.443223 0.597045 0.436421 0.637803 0.557739 0.616713 0.530327 0.527132 0.543259 0.526735 0.54296 0.661877 0.418915 0.584452 0.458578 0.570973 0.615626 0.458707 0.586022 0.457872 0.618449 0.548517 0.519552 0.558042 0.435702 0.570113 0.579083 0.322239 0.404026 0.293189 0.425235 0.483417 0.370237 0.491541 0.534441 0.530254 0.554136 0.490479 0.511756 0.565983 0.497635 0.493719 

VECTORS VAVG float 
-8.11307e-05 0.000377764 2.64693e-06 -0.0310356 0.101336 -0.00222702 -0.0496774 0.137997 -0.000374332 -0.0696054 0.169191 0.0461255 -0.112428 0.251324 0.0671502 -6.9502e-05 0.00129144 6.58084e-05 -0.00605794 0.0755674 -0.00115955 0.0088514 0.123036 -0.00225241 0.0492524 0.146891 0.0156135 0.0605572 0.208279 0.0335383 0.000510343 0.00189361 -0.00229185 0.0252004 0.0355268 -0.0232635 0.022774 0.0774807 -0.0321415 0.0196379 0.14662 0.000264791 0.0401992 0.237881 0.00383013 -0.00152496 0.00720273 5.53266e-05 -0.01777 0.0699579 0.00104457 -0.0451996 0.0983964 0.000423049 -0.0766046 0.156011 0.0417753 -0.103144 0.219192 0.0552367 0.00125267 0.00883526 0.000504944 0.00246394 0.0704028 0.000846438 7.90822e-06 0.108048 -0.00369583 0.0484244 0.174619 0.0168025 0.074986 0.234849 0.034293 0.00140625 0.00781126 -0.00868807 0.0256651 0.0483938 -0.0210158 0.0178781 0.0812631 -0.0157439 0.0201581 0.142195 -0.00359617 0.0301973 0.233648 0.0170876 -0.00193721 0.00523537 0.000380042 -0.0210276 0.0590265 0.00531375 -0.0333241 0.0837417 0.0085916 -0.0634917 0.169584 0.0284437 -0.0762493 0.192883 0.0463007 -1.00434e-05 0.00393911 0.000354071 -0.00616528 0.0595476 0.00163521 -0.0049719 0.0868276 -0.00456517 0.0469003 0.193062 0.0117632 0.0652719 0.241462 0.0308848 0.000718433 0.00335669 -0.00456428 0.00850993 0.0316011 -0.00909717 0.0105512 0.0752915 0.00549745 0.0087659 0.163923 -0.0107474 0.0160714 0.221656 0.0180353 -0.00292651 0.0062162 0.000719781 -0.0243194 0.0693989 0.00668252 -0.0403279 0.128989 0.00869008 -0.0387079 0.185311 0.0146344 -0.0433987 0.223379 0.0269001 -0.000834034 0.0045427 0.000555856 -0.012152 0.0631528 0.00628965 0.0129793 0.105838 0.00127446 0.0382175 0.154301 0.0169298 0.0472834 0.227084 0.0372526 0.000621648 0.000512258 -0.000920037 0.00149264 0.0307044 -0.010408 -0.00463786 0.110336 -0.00684302 -0.00350972 0.188824 -0.0179168 0.00591523 0.202319 0.0143704 0.000100348 0.0018732 0.000157753 -0.00524809 0.0728482 0.00591521 -0.0389117 0.124986 0.00735177 -0.0500768 0.172998 0.0161839 -0.0707891 0.253176 0.0282654 -0.000331825 0.00139485 0.000286157 -0.0119871 0.0578318 0.00853509 0.019619 0.0910154 0.00562566 0.0277934 0.135887 0.0316257 0.049486 0.212482 0.0410788 0.000751078 0.00357604 -3.3616e-05 0.00196408 0.0590696 -0.00878053 0.00288174 0.1192 -0.0116039 -0.0297656 0.152275 -0.0114304 -0.0516672 0.215534 -0.00235998 

