# vtk DataFile Version 2.0
Some data
ASCII
DATASET STRUCTURED_POINTS
DIMENSIONS 5 3 5
ORIGIN 0.5 0.833333 0.34
SPACING 1 1.66667 0.68
POINT_DATA 75
SCALARS RHO float 
LOOKUP_TABLE default 
0.369506 0.279071 0.527267 0.525067 0.566352 0.361163 0.335209 0.375853 0.287588 0.526769 0.319948 0.253479 0.648329 0.574754 0.488646 0.465507 0.536805 0.612754 0.623211 0.592224 0.359407 0.623346 0.495335 0.586755 0.645928 0.359843 0.52929 0.565302 0.476836 0.594786 0.468923 0.653889 0.634805 0.613932 0.613942 0.430453 0.615217 0.352033 0.54109 0.609658 0.41682 0.531308 0.610321 0.408149 0.621495 0.3848 0.429583 0.480621 0.608769 0.597966 0.439269 0.504472 0.483955 0.515903 0.600635 0.506349 0.465774 0.618714 0.481194 0.565263 0.333345 0.447673 0.507022 0.54943 0.28567 0.37298 0.511593 0.501226 0.542556 0.37114 0.417053 0.393851 0.275514 0.424503 0.393705 

VECTORS VAVG float 
-0.00026981 2.95075e-05 0.000305978 -0.00807783 -0.00332765 0.00897734 -0.000432467 0.0108951 0.0138698 0.00170877 0.00717909 0.0136244 -0.00171228 0.00336466 0.0082094 -1.38775e-05 -6.79562e-05 7.09415e-05 -0.00229702 -0.00556278 0.000409161 -0.00892386 -0.00666813 0.00304172 -0.00962412 0.00365619 0.00926547 -0.010552 0.00386968 0.00225143 3.5461e-05 2.80901e-06 -0.000110337 0.000485922 0.00383837 0.0027221 -0.00637089 0.0101334 0.00533239 -0.00275297 0.0094358 0.00321342 -0.00766505 0.00394693 0.00478111 -0.0021705 0.000237374 0.00246145 -0.00996096 0.00129334 0.0103107 -0.00308332 0.00865637 0.00232749 0.00135168 0.00417456 0.0130503 -0.00393815 0.00309183 0.0108301 -0.000115204 -0.000547312 0.000589319 0.000514111 -0.00455595 0.00173332 -0.00758587 -0.00713428 0.00412694 -0.00879831 0.00157365 0.00813454 -0.00996028 0.00138897 0.00190651 -2.35817e-05 0.000135318 -0.000504105 -0.000770004 0.00133813 -0.00249866 -0.0156003 0.00909095 -7.26495e-06 -0.00931407 0.00847179 0.00461658 -0.0103444 0.00304761 0.00708247 -0.000870963 0.000189621 0.00116154 -0.0058529 0.00405324 0.00968552 -0.0087192 0.00642451 -0.00501941 -0.00514305 0.00166817 0.00924498 -0.00663342 0.00403464 0.0116297 0.000291508 0.000111113 7.42818e-05 0.00474185 0.00157244 0.00242772 -0.00576463 0.000609226 0.0104964 -0.0105458 0.00335829 0.00530439 -0.0108412 0.00141396 0.00213197 -4.41071e-05 4.45373e-05 -9.04651e-05 -0.00385842 0.00458972 -0.00101155 -0.0102146 0.00344292 0.00157905 -0.00796873 0.00267082 0.00608627 -0.00930821 0.00277144 0.00976022 -7.31499e-05 8.55554e-05 0.000228639 -0.0024914 0.00312012 0.00968413 -0.00888291 0.0045186 -0.00413004 -0.0128151 0.00138159 0.0082781 -0.0127218 0.00653882 0.00846887 5.1358e-05 3.49812e-05 1.98207e-06 -0.000597216 0.000456872 0.00460959 -0.00571623 0.00264518 0.016552 -0.0132749 0.00729102 0.00496987 -0.0147512 0.0094949 0.00274066 -7.12829e-05 0.000110457 -1.79456e-05 -0.00424871 0.00541354 0.000322287 -0.00976944 0.00553964 0.00408469 -0.00966652 0.00468908 0.000249982 -0.00967224 0.00172221 0.00646436 0.000149504 0.000641199 -1.19074e-05 0.00269453 0.00317728 0.00264266 0.00450394 0.00223027 0.0048639 -0.00487878 0.00367723 0.0128385 -0.0104119 0.00520561 0.00823879 -8.99155e-05 1.60338e-05 6.22701e-05 -0.00857613 -0.00383267 0.00203037 -0.00646824 0.0049989 0.0136309 -0.0134537 0.00903613 0.00648999 -0.0151163 0.0104073 0.00434279 -0.00259833 0.00363832 0.000306685 -0.00766518 0.0112836 0.0015881 -0.0108652 0.00786487 0.00651957 -0.00943137 0.0053362 -0.00143106 -0.00960343 0.000838184 0.00459485 

