# vtk DataFile Version 2.0
Some data
ASCII
DATASET STRUCTURED_POINTS
DIMENSIONS 5 3 5
ORIGIN 0.5 0.833333 0.34
SPACING 1 1.66667 0.68
POINT_DATA 75
SCALARS RHO float 
LOOKUP_TABLE default 
0.366083 0.341422 0.495413 0.423059 0.423461 0.373152 0.286653 0.385001 0.347155 0.452113 0.316994 0.295917 0.28718 0.443712 0.571805 0.451928 0.624952 0.619888 0.585219 0.367892 0.44212 0.634795 0.635769 0.63025 0.607771 0.375087 0.568012 0.546233 0.545953 0.600872 0.48083 0.624348 0.643388 0.477963 0.493934 0.507621 0.697099 0.662107 0.59317 0.607069 0.462983 0.547262 0.540954 0.514588 0.51476 0.439785 0.588855 0.60953 0.544507 0.664407 0.508682 0.570307 0.637744 0.596133 0.599626 0.537402 0.564222 0.572294 0.356022 0.453942 0.348568 0.440527 0.338288 0.501796 0.427691 0.392384 0.578361 0.583921 0.561303 0.474159 0.483078 0.557728 0.573697 0.340925 0.417634 

VECTORS VAVG float 
0.000122195 0.000231452 -7.85909e-06 0.00446828 0.0326348 0.0227424 0.017711 0.0662149 0.0266437 0.0398778 0.139069 0.0381876 0.0521681 0.256507 -0.0225014 0.000882683 0.00079384 -6.04815e-05 0.011066 0.070501 0.0209425 0.00930474 0.104311 0.0307155 0.00468568 0.140626 0.0248387 -0.0261054 0.2011 -0.0212423 5.46975e-05 7.3329e-05 0.000181318 -0.00259095 0.0373207 -0.00427341 -0.016154 0.0989885 -0.0234223 0.0116096 0.176392 -0.0204434 0.037635 0.218393 0.00926987 0.000687703 0.00260084 0.00114383 0.00294381 0.0279119 0.0196638 0.0236275 0.0876285 0.025987 0.0434665 0.139573 0.0483275 0.0575996 0.262879 0.0103767 0.00537251 0.00483016 -0.000363258 0.0135325 0.0437453 0.0118698 0.00545359 0.0956294 0.0349827 0.00307814 0.163404 0.0257411 -0.00131373 0.270542 -0.0182164 0.000944496 0.000794696 0.00375739 -0.00343971 0.0213741 0.00935971 -0.0535687 0.0994143 -0.0152239 -0.0400427 0.213838 -0.00799817 0.0228905 0.256726 0.00132882 0.00022183 0.000839424 0.000589492 -0.000755351 0.0497391 0.013005 0.0313221 0.10285 0.0160471 0.0688674 0.162386 0.0392032 0.101811 0.269138 0.0204886 0.00220609 0.0019319 8.97092e-05 0.0072202 0.0201029 0.00833216 -0.00272242 0.0714237 0.0250955 0.0133916 0.17668 0.00831417 0.00412907 0.284892 -0.00218501 -9.86127e-05 0.000154393 0.0026473 -0.00964749 0.0100107 0.0129817 -0.0609673 0.0978795 0.000207348 -0.0343984 0.224342 0.00912982 0.0184655 0.265464 -0.0179119 -0.000162211 0.000385849 0.00107239 -0.00474177 0.061011 0.00774876 0.0387427 0.105596 0.00420202 0.0886934 0.169534 0.0205342 0.124538 0.250238 0.0224444 0.000669747 0.000607781 0.000263615 -0.0032633 0.0214421 0.0174184 -0.0076347 0.0459597 0.0131716 0.0147142 0.151042 -0.0270098 -0.00707711 0.288492 0.0238357 -0.000968274 -0.000338899 0.00120022 -0.0140438 0.0200716 -0.000303683 -0.0396358 0.0845805 -0.00501083 -0.0319419 0.212413 0.0118806 0.0378209 0.244881 -0.00690526 0.00244168 0.00468284 0.000565248 0.0260958 0.0597889 0.00269762 0.0375123 0.0853103 -0.00880573 0.101965 0.175011 0.0292361 0.127669 0.262445 0.0166644 -0.00108352 0.00507773 0.00346146 -0.0111832 0.0575818 0.0397773 -0.0195412 0.0431111 0.0327241 -0.00407588 0.185127 -0.0942507 -0.00153735 0.297755 0.0193079 -0.000704833 0.0025788 -0.00329905 -0.000820618 0.0469713 -0.0341401 -0.00649705 0.0771214 -0.0202082 0.0101494 0.166381 0.0100207 0.0337036 0.213423 0.00858817 

