# vtk DataFile Version 2.0
Some data
ASCII
DATASET STRUCTURED_POINTS
DIMENSIONS 25 1 1
ORIGIN 0.2 2.5 1.7
SPACING 0.4 5 3.4
POINT_DATA 25
SCALARS count float 
LOOKUP_TABLE default 
1127.98 13440.9 0 943.785 1215.09 645.899 873.019 905.473 1389.18 887.059 940.988 1129.56 927.403 920.684 871.046 740.421 2361.12 767.118 657.728 547.033 429.981 282.169 337.231 310.812 284.344 SCALARS RHO float 
LOOKUP_TABLE default 
1.02544 12.219 0 0.857987 1.10463 0.587181 0.793654 0.823157 1.26289 0.806418 0.855443 1.02687 0.843094 0.836985 0.79186 0.67311 2.14647 0.69738 0.597935 0.497303 0.390892 0.256517 0.306573 0.282557 0.258494 

VECTORS VAVG float 
0 0 0 0 0 0 0 0 0 0 0 0 -0.058525 0.996692 -0.0222501 -0.0183044 -0.0907602 1.74121 0.0188669 0.0382051 -0.0170584 2.24455 0.0189911 0.0402867 0.0695358 2.98517 -0.00572243 0.0282833 0.0353407 4.02382 -0.0535999 -0.0342338 -0.00446391 4.64784 -0.0467754 0.00193317 -0.0269443 5.03619 -0.00323002 -0.0270225 -0.0142087 5.66636 -0.0105874 -0.0253987 -0.0220029 6.28058 -0.0125733 0.00582324 -0.045652 7.419 -0.00781567 -0.0396101 -0.0199555 8.20158 -0.0153159 -0.0440081 0.0329061 8.7574 0.00115979 -0.000895105 0.00920923 11.122 -0.00413463 0.0121305 0.0316427 10.9979 -0.0172289 -0.00324133 0.0334757 9.20903 -0.0106604 -0.0283368 0.0124081 9.49404 -0.00670315 -0.0359632 -0.0193636 10.6995 -0.00522201 -0.0159576 -0.0133672 11.5515 0.00812204 0.00358614 -0.00732814 10.2335 -0.00192229 -0.00791544 0.0125594 10.0359 0.00399769 -0.00560786 -0.00559571 9.98616 -0.00493796 -0.0154689 -0.0091456 10.0255 0.00268188 -0.0296371 

