# vtk DataFile Version 2.0
Some data
ASCII
DATASET STRUCTURED_POINTS
DIMENSIONS 5 3 5
ORIGIN 0.5 0.833333 0.34
SPACING 1 1.66667 0.68
POINT_DATA 75
SCALARS RHO float 
LOOKUP_TABLE default 
0.375543 0.540524 0.571862 0.367747 0.448702 0.365095 0.192341 0.242991 0.379945 0.611725 0.350701 0.221241 0.384271 0.409862 0.450329 0.432137 0.606804 0.57041 0.489315 0.552041 0.407298 0.547418 0.571095 0.544141 0.644996 0.545224 0.410649 0.538734 0.564921 0.586973 0.4682 0.569734 0.580458 0.473653 0.484354 0.45921 0.524769 0.577404 0.637693 0.651874 0.533142 0.512353 0.529053 0.593601 0.542734 0.381704 0.463358 0.5688 0.583186 0.559041 0.475009 0.546669 0.537855 0.552373 0.557859 0.516622 0.44372 0.569758 0.642843 0.622467 0.337774 0.478209 0.255529 0.603519 0.482887 0.40877 0.535863 0.500778 0.414226 0.278714 0.507143 0.513616 0.534406 0.554871 0.471996 

VECTORS VAVG float 
-0.000263489 0.00162663 -0.000618 -0.00409753 0.0419829 -0.0144046 0.0071396 0.0889275 -0.0107463 0.00577723 0.196117 -0.0232185 0.0389519 0.27636 -0.0592604 0.00035469 0.000728357 4.84696e-05 0.00760661 0.0334042 -0.00602171 0.041785 0.128822 -0.0403214 0.0333682 0.164909 -0.042295 0.032722 0.256673 0.00514092 8.95938e-05 0.000408575 1.14212e-05 0.00937243 0.0606966 0.00811511 0.0260637 0.109162 0.0140389 0.0666138 0.224263 0.0226802 0.0635454 0.274275 0.0173866 0.00169265 0.00301815 -0.000161118 0.00566558 0.0422872 -4.15609e-05 0.00182727 0.112712 0.00192332 0.0023952 0.212582 -0.0189068 0.0369529 0.30677 -0.060891 0.00320092 0.00654325 0.000441197 0.0163945 0.0439419 -0.001751 0.0365517 0.11817 -0.0260292 0.0132256 0.176415 -0.038705 -0.00730229 0.284651 0.0102435 0.000819533 0.00159279 2.59394e-05 0.0108915 0.0587098 0.0014325 0.0285051 0.132896 0.0094562 0.0559788 0.217286 0.0176192 0.059935 0.275893 0.0143903 0.00126558 0.00225094 0.00039138 0.00772425 0.0365354 0.02776 -0.0106514 0.0790249 0.0168922 -0.0274489 0.181482 0.0111289 0.00489829 0.313265 -0.0627187 0.000582671 0.00415208 0.00103309 0.00382547 0.0508131 0.00821646 0.0317681 0.135534 -0.0157884 0.0133574 0.176937 -0.0308444 -0.00449674 0.282464 0.0268746 3.72907e-05 0.00162653 -0.003548 0.0104949 0.0481351 -0.0390995 0.0169081 0.106839 0.00323829 0.0298312 0.197082 0.0251061 0.0228686 0.283735 -0.00117175 0.000206012 0.000288935 -0.00021936 0.00828138 0.0340217 0.0139876 0.000911477 0.0610176 -0.0131236 -0.0202882 0.191079 -0.0148816 -0.0243852 0.285571 -0.0184123 -0.0009407 0.00486683 0.00185155 -0.00308795 0.056748 0.00958802 0.0187858 0.177294 0.000900908 -0.0136629 0.21262 -0.0218827 0.00347064 0.282265 0.0316199 -0.000836502 0.00129838 -0.00318629 0.00554905 0.0278828 -0.0365209 0.00555419 0.0731733 0.0160905 0.0016836 0.20137 0.035657 0.0140202 0.316138 0.0153489 0.00154456 0.00214717 -0.00171171 0.0154291 0.0254965 -0.00485923 0.0105506 0.0880614 -0.0459897 0.0277243 0.205673 -0.048721 0.0433879 0.289615 -0.0214643 0.00417936 0.001806 -0.00568829 0.0279587 0.0281656 -0.0362429 0.0124935 0.140441 0.00378118 0.0227581 0.219473 -0.0114559 0.0137374 0.278262 0.017789 0.000248809 0.000716703 0.00126973 0.00462358 0.0177809 0.0181433 0.0102617 0.0987132 0.0279265 0.0143032 0.24865 0.0286266 -0.0133734 0.366337 0.0348678 

