# vtk DataFile Version 2.0
Some data
ASCII
DATASET STRUCTURED_POINTS
DIMENSIONS 5 3 5
ORIGIN 0.5 0.833333 0.34
SPACING 1 1.66667 0.68
POINT_DATA 75
SCALARS RHO float 
LOOKUP_TABLE default 
0.380466 0.466168 0.60296 0.595054 0.405085 0.360485 0.208075 0.322961 0.523577 0.417402 0.36123 0.361368 0.536854 0.575192 0.401616 0.395852 0.600264 0.586042 0.482587 0.525598 0.378155 0.582333 0.614514 0.615605 0.532617 0.553652 0.461687 0.644981 0.540421 0.623952 0.47638 0.560523 0.61564 0.39692 0.632588 0.461483 0.633316 0.657923 0.553473 0.543493 0.502852 0.456201 0.66005 0.634455 0.590161 0.434821 0.493389 0.533671 0.511528 0.597109 0.482722 0.482318 0.591169 0.632946 0.534601 0.495945 0.600618 0.673712 0.594326 0.588651 0.331481 0.534835 0.194552 0.258724 0.414535 0.4367 0.493691 0.531794 0.490281 0.52813 0.516196 0.568514 0.473461 0.341438 0.512119 

VECTORS VAVG float 
-0.000669807 0.00178062 -0.00212526 -0.0102473 0.043103 -0.0323699 0.00603279 0.124119 0.0111345 0.0272742 0.226759 0.00517941 0.052339 0.317275 -0.0125433 9.23955e-05 0.000417302 -5.02308e-06 -0.0498124 0.109448 -0.0010176 -0.0689857 0.160116 -0.0251462 -0.000852641 0.204642 -0.065878 0.0216572 0.281313 -0.07323 -0.000126429 3.9721e-05 -0.000266033 0.000526565 0.12467 -0.00428313 0.0174494 0.206204 -0.0144681 0.0649043 0.212478 -0.0141155 0.0865045 0.293504 -0.00531013 -0.000356382 0.00134852 -0.00126075 -0.00561281 0.051688 -0.0385923 0.00717697 0.125796 -0.0306941 0.00924423 0.222673 -0.000385275 0.0410561 0.324849 -0.00496982 0.00126811 0.00580443 -9.60941e-05 -0.0102211 0.062888 -0.00546604 -0.0357259 0.125859 -0.0222447 0.00113874 0.172883 -0.0578837 0.0236716 0.293571 -0.0627198 0.000863733 0.00499592 0.00032886 0.0125062 0.101535 0.000242404 0.0318559 0.161116 -0.0153779 0.0590406 0.204065 -0.0512718 0.0849814 0.314504 -0.0235594 -0.00141142 0.0067862 -0.00691647 -0.00560984 0.0643782 -0.0458055 0.000966216 0.13006 -0.0191979 -0.0173377 0.211561 -0.00544777 0.00781147 0.316128 -0.0121274 -0.00249159 0.006551 0.00049836 -0.014421 0.0625355 -0.0040855 -0.0164152 0.120426 -0.0365753 0.00260086 0.153151 -0.0663908 0.0234914 0.292488 -0.0560326 0.00260401 0.00243747 -0.000729522 0.03864 0.0726428 -0.0455393 0.0566966 0.137908 -0.0181855 0.0562818 0.187533 -0.0523584 0.0764387 0.269831 -0.0448431 -0.00208455 0.00883238 -0.00968052 -0.00735402 0.0591842 -0.0401219 0.00695869 0.146389 0.00262005 -0.0171031 0.206167 0.00317626 -0.00920212 0.303356 -0.0281957 -0.00451135 0.00783894 0.000801768 -0.0250339 0.0695922 -0.00309355 -0.0190715 0.134366 -0.0540627 -0.00418381 0.16663 -0.0691518 -0.00546205 0.262667 -0.0670227 0.00513911 0.0030599 -0.00222101 0.0429304 0.0659161 -0.0653673 0.0632878 0.133066 -0.0355902 0.0477972 0.150398 0.0040116 0.0386814 0.257916 -0.0533724 -0.000335307 0.000115658 2.98049e-05 -0.00462353 0.0103258 -0.00140504 0.0114101 0.137462 0.00502344 -0.0169706 0.197906 0.006784 0.0193509 0.296957 -0.0240948 -0.0083363 0.00272588 -0.0116781 -0.0382778 0.0494907 -0.0486217 -0.0442328 0.124701 -0.0257122 -0.048941 0.173073 -0.0619107 -0.0157062 0.226032 -0.0610697 0.00312232 0.00997225 -0.00825815 0.0243458 0.087392 -0.070361 0.0282319 0.123276 -0.0525222 0.02529 0.138664 0.00817714 0.00291151 0.265278 -0.0599188 

