# vtk DataFile Version 2.0
Some data
ASCII
DATASET STRUCTURED_POINTS
DIMENSIONS 5 3 5
ORIGIN 0.5 0.833333 0.34
SPACING 1 1.66667 0.68
POINT_DATA 75
SCALARS RHO float 
LOOKUP_TABLE default 
0.371191 0.35953 0.56462 0.595359 0.245186 0.3616 0.413084 0.489317 0.392657 0.451226 0.323213 0.257172 0.43695 0.5054 0.508684 0.418856 0.593245 0.561501 0.578694 0.583579 0.337407 0.593457 0.325001 0.564309 0.624562 0.372319 0.621185 0.532129 0.373697 0.562745 0.439193 0.615787 0.590586 0.654058 0.59975 0.434078 0.579532 0.329214 0.508651 0.575524 0.426584 0.632103 0.62068 0.385188 0.579771 0.378599 0.404754 0.464754 0.556962 0.606214 0.435634 0.412175 0.628217 0.513507 0.560599 0.358184 0.380808 0.582157 0.540182 0.535849 0.319742 0.389026 0.38237 0.403802 0.570599 0.3603 0.360761 0.442332 0.433391 0.510742 0.365678 0.498776 0.519153 0.341645 0.304057 

VECTORS VAVG float 
-0.000192828 0.000253514 0.000217467 -0.0044601 0.00886872 0.0101742 -0.00403729 0.00348353 0.0174443 -0.0043623 0.000995599 0.0202697 -0.00472815 0.00326433 0.0197107 -6.09209e-05 9.59175e-06 0.000282498 -0.00504548 -0.000263019 0.0156105 -0.00984026 -0.00133675 0.00822166 -0.0123581 0.000608583 0.0154902 -0.0150901 0.00139558 0.00587619 -0.000196902 -0.000130195 0.000303239 -0.00710642 -0.00260782 0.0113624 -0.00755875 0.00240098 0.0152266 -0.00781119 0.00427299 0.0137696 -0.0173286 -0.000169192 0.00282034 -0.000623164 0.000819285 0.000702791 -0.0053813 0.00774913 0.00748455 -0.00318041 0.00385711 0.00917087 -0.00488158 0.000411199 0.0205731 -0.00668522 0.00297066 0.0208011 -7.05984e-05 8.24115e-05 0.000855843 -0.00178798 0.00158502 0.0191639 -0.00835191 0.00116486 0.0108764 -0.0223942 0.0041983 0.0274287 -0.0137603 0.000499188 0.00755876 -0.00161225 0.000198427 0.0019221 -0.00789631 -0.00192939 0.0128214 -0.00529701 0.00255053 0.012792 -0.00492616 -0.000264006 0.0167633 -0.0175358 -0.00352837 0.00568976 -2.09711e-05 8.01792e-05 0.000147227 -0.00122186 0.00360716 0.00592805 -0.0065419 0.00479869 0.00487208 -0.00962243 0.00147738 0.0176417 -0.0135337 0.00206775 0.0261532 0.000207876 0.000228122 0.00110955 0.00277388 0.00369847 0.0193371 -0.00473965 0.00310377 0.0301009 -0.0509651 0.01359 0.061348 -0.01658 0.00293716 0.00988523 -0.00247318 0.00168784 0.00155314 -0.00541797 0.00185138 0.0101846 2.49757e-05 0.00763337 0.00609655 0.000882926 0.00534005 0.00824803 -0.0160892 0.000867643 0.0121826 3.15219e-07 2.33274e-06 8.04783e-06 0.000177135 0.00157782 0.00900288 -0.00561806 0.00304116 0.00899326 -0.0107957 -1.61518e-05 0.0183161 -0.0170615 0.00212053 0.0310955 8.53444e-06 -8.34609e-05 0.000100485 -0.0104379 0.00532339 0.0155699 -0.014573 0.0070918 0.0335427 -0.0308086 0.0118501 0.0367568 -0.019948 0.00961626 0.00972556 -0.00053178 0.000230753 0.000476665 -0.00317564 0.00238064 0.00899975 -0.00250789 0.0150384 0.00959241 -0.00565268 0.0187194 0.00876619 -0.0175967 0.0072677 0.00647615 -7.04501e-05 0.000140008 0.00026871 -0.00108124 0.00323527 0.0128791 -0.00284543 0.00276317 0.0113465 -0.00726589 0.000447871 0.0194006 0.00104314 0.00867386 0.0245564 -2.13937e-05 -2.08605e-06 1.02216e-05 -0.0269894 0.00669719 0.0134337 -0.0260658 0.0112582 0.03042 -0.022471 0.00778231 0.0216034 -0.0233171 0.00589614 0.0116945 -0.000601307 0.00102743 8.18854e-05 -0.00475768 0.0064189 0.00636342 0.000652141 0.0183034 0.0178128 -0.00604703 0.0202306 0.0108961 -0.0166832 0.00788412 0.00507894 

