# vtk DataFile Version 2.0
Some data
ASCII
DATASET STRUCTURED_POINTS
DIMENSIONS 5 3 5
ORIGIN 0.5 0.833333 0.34
SPACING 1 1.66667 0.68
POINT_DATA 75
SCALARS RHO float 
LOOKUP_TABLE default 
0.385824 0.553598 0.2974 0.456579 0.450886 0.364914 0.226646 0.0705201 0.291879 0.337586 0.351236 0.183382 0.344788 0.366161 0.470272 0.431257 0.562913 0.56985 0.586631 0.497928 0.400061 0.532267 0.362525 0.470647 0.542541 0.542316 0.391787 0.50093 0.596597 0.683981 0.457624 0.558224 0.523666 0.656847 0.495181 0.485063 0.531393 0.561139 0.604083 0.51512 0.531024 0.558213 0.568622 0.598365 0.625951 0.379994 0.521164 0.565705 0.614902 0.43672 0.517884 0.537867 0.452295 0.617033 0.480466 0.503902 0.396596 0.630435 0.575111 0.576222 0.321023 0.475031 0.491009 0.446555 0.476158 0.396779 0.576165 0.554144 0.582031 0.488622 0.503703 0.515605 0.586273 0.51277 0.606145 

VECTORS VAVG float 
-0.000683994 0.0014653 -0.00112534 -0.00938938 0.0245674 -0.0173789 -0.0131686 0.107642 -0.0153329 -0.0188311 0.160898 -0.0115734 -0.0349479 0.181032 -0.0318652 -1.68079e-05 7.5452e-05 -9.09321e-05 -0.00390854 0.0121016 -0.0130401 -0.0147621 0.163709 -0.0359966 -0.0332112 0.177713 -0.0483845 -0.00342128 0.172529 -0.0177649 -0.00016162 0.000486283 -0.00111766 -0.0115282 0.0303643 -0.0281476 -0.00962425 0.0744945 -0.0384651 0.00257963 0.153356 -0.0213933 0.020093 0.164244 0.00968734 0.000574836 0.00338322 -0.00198022 -0.000654145 0.03431 -0.0177751 -0.00400381 0.0979633 -0.020112 0.00355179 0.154022 -0.0282363 -0.019431 0.182852 -0.0413375 1.18261e-05 0.000132032 -0.000266296 -0.00484025 0.016383 0.00135978 -0.03484 0.140261 0.00416331 -0.059387 0.198091 -0.0554512 -0.0301217 0.177455 -0.0185499 -0.000441976 0.00151037 -0.00372834 -0.011672 0.0266775 -0.0217298 -0.0191038 0.121282 -0.0490955 -0.0105009 0.184452 -0.0515201 -0.00528904 0.170136 0.0020659 0.000355291 0.00183591 -0.00122878 0.00476104 0.0234519 -0.0250447 0.00989851 0.0820177 -0.0355741 0.0190559 0.157086 -0.0353956 0.00526341 0.213292 -0.0545795 0.000500587 -0.000175754 -0.00128821 -0.00715668 0.0248151 0.00376752 -0.0300732 0.134697 0.00965789 -0.0529709 0.210274 -0.0477581 -0.0530607 0.202782 -0.00965079 -0.000382287 0.00144294 -0.00297671 -0.00274845 0.0149983 -0.0225666 -0.0102883 0.0714055 -0.0522782 -0.0326656 0.18748 -0.045339 -0.033606 0.179257 -0.00560385 4.67738e-05 0.0001787 -5.76121e-05 0.00810545 0.0285379 -0.0192228 0.0126166 0.0401064 -0.0360841 0.0164314 0.135494 -0.0388957 -0.00498003 0.218109 -0.061668 0.000443951 0.000388581 -0.00174337 0.00364734 0.0154767 -0.00761603 -0.00329113 0.113658 0.00394043 -0.0135291 0.186216 -0.0374676 -0.0143765 0.238701 -0.0378766 -0.000532063 0.000250438 -0.00069256 -0.00152102 0.0201105 -0.021737 0.000301561 0.0507755 -0.0430324 -0.018559 0.143838 -0.0290146 -0.00456218 0.190518 0.00805235 0.000247148 0.000864474 -2.95473e-05 0.00931305 0.0395853 -0.00778613 0.0060013 0.0704492 -0.0248925 -0.000169556 0.129414 -0.0322514 -0.031658 0.197349 -0.0472976 0.001995 0.00162912 -0.0018248 0.0214393 0.0225314 -0.0178987 0.00155302 0.075065 0.0269565 0.0135997 0.178145 -0.0222557 0.0209428 0.225519 -0.0263715 -0.000165984 0.00215872 -0.00217807 0.00813089 0.0333111 -0.0341407 0.022139 0.0563246 -0.0443325 0.0207518 0.113251 -0.0335859 0.000300223 0.177701 0.0377071 

