# vtk DataFile Version 2.0
Some data
ASCII
DATASET STRUCTURED_POINTS
DIMENSIONS 5 3 5
ORIGIN 0.5 0.833333 0.34
SPACING 1 1.66667 0.68
POINT_DATA 75
SCALARS RHO float 
LOOKUP_TABLE default 
0.370483 0.284575 0.410952 0.405262 0.468729 0.366932 0.163604 0.537105 0.596624 0.412632 0.355558 0.347346 0.492165 0.395694 0.338471 0.399613 0.501508 0.548293 0.530201 0.541652 0.434653 0.536286 0.569034 0.595889 0.566215 0.584968 0.6211 0.519516 0.588108 0.469159 0.460826 0.566627 0.573447 0.606836 0.52301 0.487607 0.564941 0.56203 0.487057 0.476671 0.533858 0.615368 0.602984 0.663813 0.634669 0.422353 0.573165 0.447379 0.60222 0.519964 0.494201 0.513253 0.643386 0.575113 0.557828 0.522967 0.626673 0.555404 0.660088 0.599308 0.341349 0.556318 0.210737 0.541294 0.331893 0.391521 0.513653 0.405346 0.327352 0.42523 0.503652 0.578643 0.356761 0.47676 0.509518 

VECTORS VAVG float 
0.000369296 0.00117085 0.000511709 0.0137667 0.0495118 0.019258 0.0157781 0.14862 0.0360764 -0.00546061 0.22354 0.0224742 -0.0248608 0.272473 -0.0618105 -0.00235277 0.00161544 -0.00146791 -0.0232553 0.0736373 -0.0211663 0.00899938 0.141903 0.0053548 0.00429616 0.229521 0.0378931 -0.0427065 0.306001 -0.039238 0.000153015 0.00100756 -0.000224869 0.0292428 0.113197 -0.0277932 0.0223376 0.180669 -0.0755804 -0.00209112 0.214194 -0.0890202 0.0265695 0.251211 -0.0307956 0.000161901 0.00135748 0.000434962 0.00405443 0.0395428 0.0129389 -0.0078878 0.149896 0.0391173 -0.0313431 0.20449 0.0158424 -0.0285814 0.276713 -0.0378643 -0.0185027 0.0145186 -0.0127167 -0.0483124 0.0708882 -0.0355565 -0.0213322 0.150839 0.000787168 -0.00408849 0.228494 0.0331642 -0.0476546 0.297484 -0.0537509 0.00143554 0.00596234 -0.00263494 0.0257346 0.0710448 -0.0329683 0.0346632 0.152725 -0.0464399 0.0294102 0.238272 -0.049326 0.0407808 0.288535 -0.0686105 0.000661079 0.00203907 -3.17623e-05 0.00715847 0.0298723 0.00345826 -0.0154456 0.148964 0.0329723 -0.0382286 0.185191 0.00413621 -0.0226164 0.26895 -0.0287907 -0.004768 0.00705709 -0.00417405 -0.0146993 0.0750901 -0.00902661 -0.0265716 0.169662 0.015398 -0.0162529 0.202319 0.0098976 -0.0318196 0.241414 -0.0790342 0.000719463 0.00249003 -0.00429953 0.0208991 0.0551073 -0.0545644 0.0371236 0.125795 -0.049755 0.0372171 0.209655 -0.0267447 0.0240574 0.27151 -0.0309111 0.0016716 0.00327259 -0.00056621 0.0139453 0.0392875 -0.00114886 0.00158664 0.14304 0.0301956 0.0149955 0.204675 0.00253729 0.0132987 0.274373 -0.0493561 0.0028811 0.00422732 -6.12937e-05 0.0104352 0.0658414 0.00144575 -0.0134577 0.166573 0.0167688 0.00266468 0.189313 -0.00223988 -0.0252942 0.251377 -0.113738 0.00118313 0.00183051 -0.0101054 0.0176297 0.0650608 -0.0608247 0.0359654 0.121459 -0.0258506 0.0171099 0.218162 -0.0224019 0.021266 0.288931 -0.0340285 -0.00108062 0.00628436 0.000277271 -0.003585 0.068788 0.000165823 0.0257503 0.170829 0.0210641 0.0300031 0.220274 -6.06527e-05 0.0170331 0.295758 -0.0643731 0.00118606 0.00417193 -0.000614145 0.0126338 0.058982 -0.008212 -0.0103571 0.146085 0.00704946 0.0148986 0.187521 0.00502032 -0.0458703 0.347728 -0.105756 0.00204443 0.00963379 -0.00118778 0.0186491 0.101558 -0.0148308 0.0394706 0.120936 -0.00793789 0.011061 0.262209 -0.0374845 0.0301585 0.322002 -0.0560987 

