# vtk DataFile Version 2.0
Some data
ASCII
DATASET STRUCTURED_POINTS
DIMENSIONS 5 3 5
ORIGIN 0.5 0.833333 0.34
SPACING 1 1.66667 0.68
POINT_DATA 75
SCALARS RHO float 
LOOKUP_TABLE default 
0.365852 0.294821 0.391221 0.460476 0.561545 0.373252 0.248413 0.428548 0.45655 0.557924 0.360413 0.348141 0.428271 0.453384 0.506438 0.438727 0.547337 0.614368 0.547675 0.610198 0.446218 0.511071 0.600022 0.585826 0.477566 0.570723 0.582339 0.55716 0.556378 0.595958 0.468385 0.499988 0.548871 0.629049 0.591861 0.4948 0.586561 0.655122 0.636308 0.589625 0.525057 0.556928 0.520874 0.54319 0.489756 0.428806 0.50947 0.411772 0.619652 0.510352 0.49656 0.616629 0.58792 0.640639 0.634696 0.530438 0.637691 0.577101 0.495793 0.379751 0.33947 0.509654 0.46937 0.591288 0.442133 0.416333 0.589672 0.410877 0.446194 0.435039 0.51368 0.562355 0.427262 0.441817 0.280775 

VECTORS VAVG float 
-0.000172948 -0.000106114 -0.000202171 0.00127073 0.0346474 0.00298642 0.025544 0.199919 0.0293591 0.0315557 0.240082 -0.0187775 -0.0110329 0.311871 -0.0378767 0.000173175 0.000174791 2.83628e-06 0.0278571 0.133058 0.00859697 0.0482055 0.215265 -0.0020733 0.0571598 0.228479 0.0112395 0.0315505 0.264026 -0.0170157 -0.00248179 -0.00360817 -0.00184714 0.00905403 0.104607 -0.0555439 0.0717401 0.267826 -0.0795156 0.0162057 0.289149 -0.0601352 0.0136634 0.259634 -0.0511844 -0.00243145 -0.00102182 -0.00279048 -0.00866007 0.0173318 -0.00618655 0.0159183 0.182835 0.0293522 0.0366051 0.267332 -0.000762274 0.038796 0.300962 -0.00658703 0.00164123 0.00194828 6.70723e-05 0.0263799 0.079284 0.00365114 0.0370939 0.211183 0.000724541 0.0328418 0.221579 0.01287 -0.0122479 0.262045 -0.00742365 -0.00524012 -0.0109071 -0.00439858 -0.0228969 0.0315961 -0.0460838 0.0254522 0.21742 -0.0674714 -0.00302036 0.298006 -0.0344848 -0.0268595 0.267095 0.00161727 -0.000391405 0.000295572 -0.00102004 -0.0101341 0.0254514 -0.00148369 -0.00258729 0.175739 0.0207208 0.0308207 0.306799 0.00296651 0.0738603 0.301541 -0.00201399 0.0023973 0.00309777 0.000302367 0.0384039 0.0775965 0.0012939 0.0149371 0.210681 -0.00744888 -0.00331345 0.201028 -0.00105427 -0.0755803 0.24807 -0.0252814 -0.00254527 -0.00971444 -0.00727246 -0.0061828 0.0165926 -0.0512888 -0.00231653 0.143304 -0.0627149 -0.0302365 0.274058 -0.0158948 -0.0303456 0.275093 -0.00138723 0.000870654 0.00149911 -0.00037313 -0.00305636 0.0320295 -0.00407841 -0.016953 0.236185 -0.0112771 0.000988862 0.285779 -0.0164795 -0.025119 0.311193 -0.0489132 0.00362373 0.00489105 0.00051099 -0.0103713 0.0927218 -0.00531274 -0.0478907 0.232355 -0.020623 0.0184321 0.197834 -0.00787474 0.00871249 0.247504 -0.0233573 -0.000230061 -0.00234408 -0.01121 0.0131285 0.0654975 -0.0219424 0.0103484 0.120635 -0.0167758 -0.0179603 0.359429 -0.00632793 -0.0115078 0.33569 -0.0150299 0.00386043 0.0093234 0.000614855 0.0436752 0.122196 0.000301581 0.00189625 0.235923 -0.00581091 0.000995762 0.261299 -0.0039805 -0.127711 0.31044 -0.0905604 0.00235893 0.00586989 -0.00089591 -0.019785 0.0952321 -0.0108001 -0.0884279 0.249946 -0.0864459 0.0236677 0.208861 -0.0352846 0.0446889 0.249873 -0.0253261 0.00296596 0.0139062 -0.000976705 0.0289353 0.128466 -0.00583222 0.0466588 0.186703 0.000867987 0.039561 0.355516 -0.0106171 0.037935 0.321408 -0.0430875 

