# vtk DataFile Version 2.0
Some data
ASCII
DATASET STRUCTURED_POINTS
DIMENSIONS 5 3 5
ORIGIN 0.5 0.833333 0.34
SPACING 1 1.66667 0.68
POINT_DATA 75
SCALARS RHO float 
LOOKUP_TABLE default 
0.37801 0.450387 0.585596 0.591372 0.3441 0.421837 0.454559 0.321607 0.418101 0.375819 0.360201 0.342177 0.477684 0.572482 0.468027 0.395323 0.600262 0.575373 0.495703 0.455328 0.381563 0.59572 0.606858 0.584842 0.526119 0.550319 0.432758 0.63952 0.587765 0.577386 0.467166 0.565776 0.631776 0.459862 0.568053 0.452801 0.632866 0.63863 0.51431 0.487736 0.511631 0.406233 0.646257 0.66693 0.566841 0.438799 0.563668 0.554887 0.512815 0.644503 0.467158 0.496244 0.59691 0.628607 0.456747 0.516391 0.606281 0.664693 0.585426 0.519908 0.329751 0.559343 0.230331 0.310766 0.518498 0.367699 0.290245 0.517083 0.534496 0.573685 0.522455 0.569038 0.490712 0.349345 0.498378 

VECTORS VAVG float 
-0.000496314 0.00162882 -0.000690163 -0.00882176 0.0433079 -0.0115776 -0.00110658 0.109458 0.0116352 0.00333234 0.15356 0.01435 0.0264629 0.231254 -0.0267716 -0.00024107 0.00147986 -0.00244371 -0.0165654 0.0360229 -0.0148256 -0.0374019 0.119632 -0.019997 -0.0399826 0.162645 -0.0186293 -0.148114 0.268523 -0.0245823 0.000152663 -0.000102765 -0.000218174 -0.0110575 0.0222424 -0.0157835 -0.0235562 0.0979466 -0.0063001 -0.0335235 0.167958 -0.0176841 -0.0729165 0.273091 -0.0184522 -0.000299327 0.00106568 -0.000456278 -0.00858924 0.0366732 -0.0141924 -0.0149147 0.100034 -0.00257696 -0.00822249 0.157903 0.00948943 0.034224 0.21903 -0.0190914 0.00168087 0.00426473 0.000598907 -0.00078379 0.0413141 -0.00110572 -0.010126 0.0908385 -0.0132156 -0.00596677 0.132252 -0.0155363 -0.0621813 0.267301 -0.0135474 0.000402657 0.000264675 0.00145185 0.00533109 0.0335924 -0.0086262 -0.00236612 0.0998391 -0.0096187 -0.0263627 0.160172 -0.0108004 -0.0405914 0.246531 -0.0158948 -0.0015858 0.00247662 -0.000412862 -0.011333 0.0318258 -0.0100165 -0.0134918 0.0867644 -0.000342616 -0.0182707 0.123167 -0.0115168 0.00935604 0.167906 -0.041054 -0.000398157 0.00337459 0.000103809 0.00047444 0.0406314 -0.000321209 0.00422411 0.0750073 -0.0127884 0.0142976 0.104298 -0.0303749 0.0199609 0.202685 -0.0272223 0.00428748 0.00111182 0.00075716 0.0402954 0.0437059 -0.0107693 0.0329819 0.0914439 -0.0126834 0.00814675 0.137555 -0.0218494 0.0162847 0.185923 -0.0941325 -0.00295127 0.00421173 -0.000446412 -0.0234045 0.0291039 0.00140289 -0.0242606 0.0870941 0.0093841 -0.0919042 0.191834 -0.0366989 -0.00954395 0.206216 -0.0573453 -0.00148731 0.0035912 -5.27878e-05 -0.00203513 0.0542314 -0.00237932 -0.00498108 0.0815424 -0.0202514 0.00749092 0.122251 -0.0328411 0.0397004 0.216976 -0.0284686 0.00907042 0.00341704 -0.000646894 0.0458685 0.0434753 -0.0183627 0.045213 0.081799 -0.0103239 0.0192823 0.104457 0.00337629 0.0389507 0.245744 -0.127765 -0.000979048 0.00024401 0.000201238 -0.0257729 0.00449978 0.00759985 -0.0236411 0.0796255 0.0118696 -0.0728514 0.209499 -0.0395566 0.0325639 0.270131 -0.0202525 -0.000513512 0.000839894 -0.000246523 0.00591471 0.0790609 -0.00473291 0.00139082 0.103201 -0.012637 -0.0028301 0.140341 -0.0406769 0.0325847 0.228918 -0.0266546 0.00123078 0.00447241 -0.00600607 0.0186471 0.0434687 -0.0410061 0.0431413 0.0838611 -0.0065203 0.0174003 0.114882 -0.00697074 0.00900785 0.310608 -0.143528 

