# vtk DataFile Version 2.0
Some data
ASCII
DATASET STRUCTURED_POINTS
DIMENSIONS 5 3 5
ORIGIN 0.5 0.833333 0.34
SPACING 1 1.66667 0.68
POINT_DATA 75
SCALARS RHO float 
LOOKUP_TABLE default 
0.366504 0.483717 0.5212 0.468986 0.45543 0.371122 0.251198 0.403105 0.469038 0.32321 0.351296 0.294537 0.548723 0.39 0.40466 0.406839 0.627419 0.591143 0.556301 0.582254 0.443265 0.557513 0.567121 0.639613 0.562466 0.555575 0.533882 0.685976 0.574191 0.450726 0.457856 0.609698 0.517 0.616141 0.590571 0.463793 0.487221 0.587183 0.580675 0.501297 0.528306 0.418903 0.500864 0.552327 0.454998 0.382121 0.5248 0.528256 0.594755 0.50689 0.454575 0.483659 0.476737 0.624918 0.577179 0.542217 0.430921 0.460711 0.559669 0.466151 0.346756 0.526405 0.326659 0.441992 0.433647 0.428927 0.452046 0.385761 0.5936 0.5115 0.50539 0.510161 0.542253 0.537006 0.315455 

VECTORS VAVG float 
8.47449e-05 0.00115166 -0.000207755 0.00243568 0.0719277 -0.0251032 -0.010485 0.094855 -0.060985 -0.0141191 0.208242 -0.0667141 0.0108194 0.35182 -0.0141202 0.0012288 0.0014639 6.12604e-05 -0.0345649 0.0776823 -0.0630586 -0.134056 0.162161 -0.127783 -0.00820648 0.261658 -0.0442771 -0.0161491 0.276361 -0.0638971 -0.000404062 0.000963391 -0.000531707 0.00905506 0.0894434 -0.0405258 0.0072026 0.13871 -0.0650951 -0.00818376 0.16902 -0.0765035 -0.059298 0.415947 -0.165779 -0.00440804 0.00555083 -0.00122947 -0.0395399 0.0924423 -0.0199993 -0.051293 0.170781 -0.0309162 -0.049295 0.236456 -0.063633 -0.0407777 0.34283 -0.0187843 0.00776827 0.00927418 0.000576463 0.0231283 0.0509907 -0.0209552 -0.022687 0.129827 -0.0751673 -0.0116356 0.205556 -0.0544719 -0.00971409 0.246685 -0.0511018 -0.00169555 0.00380649 -0.00197421 0.00129018 0.0841719 -0.0286624 -0.00513945 0.157054 -0.0460396 -0.00675349 0.207284 -0.0780007 -0.0385057 0.336686 -0.123714 -0.00511629 0.00606785 -0.00137293 -0.0534145 0.0863765 -0.0364388 -0.0488325 0.187972 -0.046902 -0.0587114 0.290147 -0.0543483 -0.0595853 0.350737 -0.00603349 0.00120419 0.00835598 0.00289852 -0.0228967 0.125407 0.0443479 0.0108417 0.132801 -0.0482065 0.0469017 0.199646 -0.011678 -0.000116266 0.282409 -0.0532306 0.0015839 0.00133796 -0.00147578 -0.00525033 0.0601511 -0.0297168 -0.0153304 0.175484 -0.0431694 -0.0037701 0.243368 -0.0485854 -0.0331933 0.337974 -0.0957379 0.000360346 0.000480038 -0.00034091 0.00128091 0.0655511 -0.0481057 -0.0120233 0.138025 -0.0673936 -0.0394415 0.262806 -0.0360619 -0.0325283 0.354718 -0.0126638 -0.00347582 0.0117648 0.00620713 -0.0466555 0.173233 0.0903247 -0.014861 0.158693 -0.0490742 0.0657012 0.238814 0.00571504 0.000706525 0.288191 -0.0677026 0.0051208 0.00169131 -0.00152799 0.00769612 0.0194794 -0.0183943 0.0111031 0.156598 -0.0482312 0.000811397 0.230658 -0.0150681 -0.02363 0.365711 -0.100702 0.00343086 0.00349237 -0.00300032 0.0272253 0.0370071 -0.0320037 0.00511645 0.150541 -0.0776677 -0.000817681 0.233459 -0.0445754 0.0388058 0.360428 -0.0309609 0.00553497 0.0172334 0.0413233 0.0178295 0.109458 0.200808 -0.00768672 0.166228 -0.0657878 0.0202714 0.218222 -0.01784 -0.0165842 0.216642 -0.11167 0.00254662 0.00388601 -0.000360722 0.0162433 0.054097 -0.0184395 0.0113425 0.142456 -0.0562359 0.00568272 0.190601 -0.00385093 0.0115653 0.326744 -0.0815919 

