# vtk DataFile Version 2.0
Some data
ASCII
DATASET STRUCTURED_POINTS
DIMENSIONS 5 3 5
ORIGIN 0.5 0.833333 0.34
SPACING 1 1.66667 0.68
POINT_DATA 75
SCALARS RHO float 
LOOKUP_TABLE default 
0.366336 0.240812 0.502517 0.301316 0.415544 0.404892 0.528995 0.45198 0.462348 0.330336 0.356819 0.32969 0.428598 0.419705 0.485692 0.46419 0.520105 0.672688 0.650817 0.572252 0.398909 0.631486 0.523167 0.63623 0.659738 0.555389 0.597657 0.546569 0.595349 0.486699 0.512115 0.590808 0.514826 0.635644 0.52409 0.472042 0.660969 0.575433 0.562064 0.644076 0.513877 0.56435 0.524123 0.574286 0.538982 0.463235 0.540609 0.554928 0.600055 0.486822 0.509506 0.648598 0.509994 0.562584 0.650556 0.505577 0.506999 0.440938 0.516045 0.505173 0.357357 0.485435 0.446696 0.646532 0.370087 0.375253 0.410556 0.339973 0.564401 0.610132 0.513985 0.528845 0.45913 0.523915 0.306836 

VECTORS VAVG float 
-0.00078542 0.000840841 -0.000131399 -0.0608257 0.0985605 0.0145715 -0.088227 0.178009 0.032604 -0.0893437 0.217524 -9.60325e-05 -0.0795991 0.352803 0.0790555 -0.0069619 0.0117968 0.000296653 -0.0450305 0.113465 -0.022214 -0.0444121 0.189076 -0.00858319 -0.00467213 0.234296 0.025097 -0.0455709 0.274556 0.0128224 0.000933515 0.00198001 0.00136182 0.024714 0.088439 0.0504663 0.0258492 0.0968316 0.0689621 0.0538617 0.16303 0.0227389 0.0685672 0.317307 -0.0338206 -0.0101267 0.0108413 -0.00169418 -0.05047 0.0762594 0.00623458 -0.06748 0.179888 0.0320581 -0.0818845 0.21829 0.0112287 -0.110319 0.306094 0.0592054 -0.00855305 0.0172623 -0.000122388 -0.040559 0.0990135 -0.0120341 -0.0633297 0.178301 0.0199432 -0.02484 0.286098 0.022471 -0.0453226 0.323767 0.0160135 0.000960105 0.00556152 0.00350097 0.0223215 0.084632 0.058009 0.0337866 0.0952408 0.0798892 0.0298016 0.178682 0.0290132 0.0516552 0.308663 0.0110978 -0.00560409 0.00980968 0.00423334 -0.035499 0.0653712 0.0231227 -0.069207 0.195186 0.0332867 -0.0813093 0.236391 0.0281472 -0.0945431 0.292915 0.0518824 -0.00641831 0.00933831 0.00124579 -0.0420813 0.0698148 0.000428133 -0.0381679 0.152692 0.0199155 -0.0335952 0.343553 0.0130201 -0.0838487 0.374238 0.0209346 0.000824385 0.00183758 0.00095779 0.0392103 0.0620248 0.0465929 0.0236714 0.107809 0.0361146 -0.00521298 0.213575 0.0379758 0.0277617 0.319939 0.0552278 -0.00258878 0.0109399 0.0106508 -0.0354614 0.0827605 0.0436031 -0.0931577 0.213962 0.0099273 -0.0935162 0.236056 0.0294583 -0.0759891 0.288584 0.050113 -0.00768386 0.0103104 0.00210166 -0.0981767 0.0890909 0.0193237 -0.100807 0.187925 0.0316953 -0.0262706 0.253953 0.0237832 -0.153855 0.267972 0.0291834 2.89883e-05 0.00119304 -0.000181697 0.0497657 0.0790637 0.0284561 0.0882588 0.18956 -0.0152801 0.00929297 0.272342 0.0334072 0.0116521 0.300963 0.00157442 -0.0117551 0.021331 0.00932631 -0.0917888 0.167941 0.0672489 -0.104287 0.197733 0.00218777 -0.0939275 0.216251 0.0178672 -0.0816203 0.264202 0.045274 -0.0113998 0.00425898 0.00162011 -0.23834 0.121898 0.0401466 -0.119625 0.200295 0.0423813 0.0202012 0.219615 0.0267673 -0.0343926 0.2444 0.030866 -0.00163316 0.0134725 0.00145548 0.00804648 0.13172 0.0152569 0.100262 0.223365 -0.0149132 0.021649 0.236438 0.05587 0.0169747 0.27553 -0.0110928 

