# vtk DataFile Version 2.0
Some data
ASCII
DATASET STRUCTURED_POINTS
DIMENSIONS 5 3 5
ORIGIN 0.5 0.833333 0.34
SPACING 1 1.66667 0.68
POINT_DATA 75
SCALARS RHO float 
LOOKUP_TABLE default 
0.362995 0.343872 0.527844 0.55872 0.264582 0.364333 0.317775 0.56139 0.562237 0.323825 0.365711 0.363373 0.449626 0.389298 0.414868 0.426735 0.59907 0.464831 0.5809 0.578664 0.377403 0.575368 0.617069 0.553129 0.533126 0.551183 0.475715 0.575824 0.632423 0.687229 0.46113 0.614481 0.363316 0.444659 0.61693 0.43791 0.636276 0.572653 0.620492 0.554631 0.528708 0.535086 0.503277 0.501197 0.611363 0.41194 0.57741 0.502581 0.554793 0.566088 0.455926 0.577349 0.463852 0.629033 0.607203 0.520351 0.564869 0.452739 0.582511 0.589777 0.319833 0.356233 0.308437 0.375015 0.398104 0.370668 0.49121 0.529247 0.468981 0.562658 0.487804 0.495255 0.581512 0.449442 0.56018 

VECTORS VAVG float 
-2.38519e-05 0.000189868 -1.81392e-06 -0.0112768 0.0822523 0.00169575 -0.0438845 0.110911 -0.00030077 -0.0540821 0.134098 0.0149159 -0.0327921 0.191818 0.0396111 1.31674e-05 0.000633807 -6.75249e-05 0.00288741 0.0578517 0.000102869 0.0133171 0.0983736 0.0159255 0.0114901 0.107931 0.0292284 0.0165878 0.175063 0.0353697 -2.96222e-05 0.000279064 -0.000306235 0.0191777 0.0220863 -0.0275144 -0.000229925 0.0772583 -0.0092698 -0.0249158 0.148858 0.020269 -0.0228807 0.16702 -0.0215506 -0.00052718 0.00443115 -4.93967e-05 -0.00724956 0.050698 0.000789864 -0.0195903 0.0872813 0.000633181 -0.0288316 0.140153 0.014799 -0.0446416 0.216895 0.0297527 0.00135339 0.00647918 -0.000335536 0.00730053 0.0524215 -0.000181708 0.0107845 0.0859941 0.0147028 0.0265098 0.124705 0.030465 0.0336761 0.218689 0.0523212 0.00100123 0.00275861 -0.00186859 0.0214248 0.0328342 -0.0218846 -0.000373802 0.0777416 0.00240872 -0.0134316 0.144654 0.0138601 -0.0106651 0.203152 0.00205384 -0.000643495 0.00315323 -0.000204121 -0.00980542 0.0430644 0.00153338 -0.023088 0.0772063 0.00827669 -0.0367763 0.161201 0.0034476 -0.0725244 0.224773 0.0132074 0.000118683 0.00290568 0.00029804 -0.000671341 0.0440862 0.00784351 0.00637039 0.0676962 0.0171084 0.0270959 0.134448 0.0309692 0.0176693 0.195263 0.0708211 0.000569522 0.00109647 -0.00104291 0.00576789 0.0229167 -0.00507881 0.000261898 0.0621151 0.0062324 0.0104486 0.131516 -0.00427021 -0.0283239 0.273971 0.0104813 -0.000961169 0.00379434 -0.000378247 -0.0104096 0.0563007 -0.00407907 -0.0293739 0.118173 -0.0166226 -0.0388712 0.171799 -0.0197546 -0.0904781 0.222902 0.000491736 -0.000551726 0.00294693 0.000823781 -0.00635441 0.0428123 0.0111871 0.0116114 0.0887278 0.0262163 -0.00455146 0.120625 0.0453345 -0.0120801 0.151715 0.0950669 0.000719613 0.00042082 -0.000506775 -0.00104243 0.023984 0.000909331 -0.00503921 0.0810917 0.00685641 -0.00214964 0.116173 -0.0112353 -0.0205388 0.217866 -0.0299353 0.000210886 0.00141353 0.000145217 0.00188682 0.0720872 0.00191131 -0.028456 0.115662 -0.0184924 -0.026287 0.157928 -0.00714841 -0.0482241 0.197182 0.00456196 -1.9178e-05 0.000639529 0.000425785 -0.00154969 0.0304229 0.0133481 0.016199 0.0835327 0.0346056 -0.0305569 0.112994 0.0600057 0.000141953 0.143388 0.0365341 0.000306071 0.00182498 0.000194727 -0.00725207 0.0436118 0.00901596 -0.00540516 0.0912291 0.00133237 -0.0248248 0.11382 -0.0177677 -0.0451626 0.1682 -0.0272148 

