# vtk DataFile Version 2.0
Some data
ASCII
DATASET STRUCTURED_POINTS
DIMENSIONS 5 3 5
ORIGIN 0.5 0.833333 0.34
SPACING 1 1.66667 0.68
POINT_DATA 75
SCALARS RHO float 
LOOKUP_TABLE default 
0.365535 0.367942 0.461228 0.565651 0.550138 0.364502 0.312954 0.550243 0.532073 0.591585 0.327666 0.443047 0.397327 0.38063 0.523733 0.425011 0.601864 0.577163 0.647965 0.583541 0.401626 0.612402 0.611891 0.5101 0.611669 0.398526 0.574291 0.438019 0.600118 0.555773 0.448792 0.622415 0.52274 0.585189 0.567381 0.457796 0.624178 0.561827 0.562263 0.569596 0.497458 0.64381 0.526492 0.557363 0.465196 0.401786 0.527442 0.496592 0.539578 0.541351 0.469098 0.611728 0.527871 0.620749 0.525141 0.531041 0.601872 0.586335 0.595877 0.593686 0.315129 0.224307 0.432582 0.480725 0.500482 0.374694 0.562557 0.408635 0.491311 0.220322 0.474882 0.393968 0.528586 0.495988 0.397787 

VECTORS VAVG float 
4.10667e-05 0.000176598 4.95391e-05 0.00783817 0.0504873 -0.000640076 0.0104137 0.0917483 -0.00936356 -0.0230503 0.107105 -0.0226575 -0.0329296 0.128656 -0.0431862 0.000331948 0.00070315 4.34427e-06 0.0205569 0.0560296 -0.00851102 0.0211821 0.0797132 -0.0362448 0.0204124 0.0983914 -0.0317334 -0.0049182 0.115037 -0.0169255 -0.000325097 0.00245066 -0.000825797 -0.00402511 0.0569509 -0.0182107 -0.0116974 0.0758078 -0.0169068 -0.0124384 0.0998105 -0.0189407 -0.00218663 0.138115 -0.0237305 0.000603246 0.00276394 0.000830207 0.00436818 0.0363538 0.00546809 0.00737689 0.0810659 0.00454717 -0.0060041 0.103626 -0.0166136 -0.0143476 0.129854 -0.0430937 0.00302781 0.00643584 1.27462e-05 0.0143098 0.0412832 -0.00676387 0.00276167 0.0677226 -0.0274528 0.00041813 0.0913167 -0.0257026 0.00859755 0.132142 -0.00175957 -0.00905137 0.00749802 -0.00577926 -0.0170474 0.0441975 -0.0240555 -0.0106185 0.0620637 -0.0233137 -0.0144519 0.102429 -0.020068 -0.0138018 0.128727 -0.0213796 7.544e-05 0.00121523 0.000145467 -0.00145348 0.0297744 0.00323968 -0.00889673 0.0661162 -0.000677045 -0.00864111 0.0984903 -0.0223739 -0.0233788 0.127606 -0.0348162 0.00159206 0.00323087 -0.000428642 0.00925301 0.0297192 -0.0086136 -0.00489757 0.0499614 -0.0128255 0.00180975 0.0880994 -0.0365919 0.0110398 0.128197 -0.0132532 -0.00649937 0.00532753 -0.00496195 -0.0113249 0.0233327 -0.0269338 -0.00649732 0.044018 -0.0392418 -0.00921248 0.099282 -0.0207963 -0.0299174 0.138401 -0.0114209 -9.6063e-06 0.00160473 2.14793e-05 0.000731799 0.0282882 -0.000285625 0.00423543 0.0619158 -0.00947271 -0.00707686 0.100504 -0.0215553 -0.0429743 0.109479 -0.0369938 0.00133673 0.00255621 -0.000867444 0.00958444 0.0250932 -0.00482437 0.0153832 0.0457856 0.0283108 0.0299595 0.104054 -0.0353241 0.00442485 0.114742 -0.00841422 -0.000300891 0.000810952 -0.00173917 0.00528809 0.0176622 -0.0188814 0.00567894 0.0607448 -0.0259445 0.00777872 0.105203 -0.0196479 -0.0115172 0.130489 -0.0168339 6.11955e-05 0.000121759 1.27769e-05 0.00697009 0.0305646 -0.000807311 0.0119465 0.0603418 -0.0103872 -0.00992456 0.106401 -0.028071 -0.0382985 0.099074 -0.0447509 0.00042627 0.000836103 -0.000300212 0.00209899 0.0167763 -0.00377814 0.0212061 0.0463787 0.0294185 0.0573781 0.123487 -0.0285291 0.00896632 0.121514 -0.0147697 0.000865773 0.00100796 -0.000393811 0.0210709 0.0314543 -0.0112476 0.0288616 0.066391 -0.0232557 0.00514631 0.10851 -0.00567168 -0.00705603 0.127344 -0.01265 

