# vtk DataFile Version 2.0
Some data
ASCII
DATASET STRUCTURED_POINTS
DIMENSIONS 5 3 5
ORIGIN 0.5 0.833333 0.34
SPACING 1 1.66667 0.68
POINT_DATA 75
SCALARS RHO float 
LOOKUP_TABLE default 
0.372975 0.254923 0.475361 0.463152 0.456861 0.374513 0.356851 0.417009 0.402803 0.592698 0.315655 0.252233 0.615828 0.559701 0.617836 0.468516 0.465261 0.653852 0.669561 0.612538 0.402846 0.594796 0.527796 0.630257 0.601705 0.359548 0.554133 0.545865 0.481907 0.594096 0.469011 0.591172 0.645779 0.610758 0.586644 0.42917 0.601466 0.474968 0.567079 0.576429 0.42774 0.564141 0.576374 0.44098 0.595821 0.387975 0.457837 0.580442 0.596338 0.594231 0.42671 0.451221 0.547206 0.62232 0.609794 0.515609 0.486239 0.619577 0.531824 0.538893 0.344956 0.495825 0.551832 0.560919 0.421742 0.360234 0.446308 0.52898 0.510655 0.30943 0.477517 0.232331 0.310555 0.411859 0.272556 

VECTORS VAVG float 
0.00130285 0.00132559 -0.000532417 0.00127758 0.115061 0.0074149 -0.0106108 0.172999 0.0239456 0.0100397 0.181452 0.0107426 0.00336807 0.213229 -0.00597403 -0.00282783 0.00402499 -0.000786499 -0.0224548 0.0941686 -0.0243661 -0.00661448 0.114387 -0.0104654 -0.0161494 0.184002 0.00521476 -0.0201533 0.204605 -0.00179233 1.37947e-05 0.000346737 0.000184092 -0.00225779 0.0974032 0.0095342 -0.00259878 0.159109 0.00863646 -0.0100909 0.174604 0.0247959 -0.0537644 0.225117 0.0209004 0.00763834 0.00777167 -0.00312146 0.0218706 0.0807769 -0.00222276 -0.00277376 0.16142 0.0158652 0.00748696 0.170116 0.00558105 0.00950999 0.210022 0.0120044 -0.0117119 0.0166781 -0.00326346 -0.0324809 0.0933082 -0.0353018 -0.0149592 0.125885 -0.00057684 -0.0165762 0.167259 0.0084217 -0.015268 0.205485 0.00243764 0.000116091 0.00985181 0.00522232 -7.58473e-05 0.0751793 0.0218727 0.00223341 0.153102 -0.0239684 -0.0143283 0.175238 0.0199765 -0.027352 0.20592 0.011779 0.0019476 0.00622212 0.00011601 0.00185056 0.104477 0.0180763 -0.00390975 0.144544 0.0075899 -0.00506334 0.163646 0.00227832 0.0057878 0.202639 0.00508752 -0.00182496 0.00410798 -0.00127968 -0.00895642 0.0983184 -0.044648 -0.010079 0.123664 -0.00561403 -0.00472343 0.138034 0.0152238 0.00210458 0.213775 0.0123512 0.000901103 0.00485339 0.00171517 0.0212478 0.0806663 0.0166508 0.0178384 0.127479 -0.0271615 -0.00167526 0.138791 0.0107195 0.00147154 0.185589 0.00849411 -0.000262211 0.0031738 0.000847041 -0.00630174 0.114539 0.0223436 -0.0125831 0.133836 0.00475117 -0.0164953 0.180458 0.00695971 0.00108005 0.205339 0.000401179 2.68094e-05 0.000129895 -1.56115e-05 0.00142522 0.105793 -0.028093 -0.00743817 0.133169 -0.00805784 -0.0122424 0.167027 0.0112016 -0.00923781 0.216447 0.00881105 0.00163796 0.00698419 -0.00142893 0.0354029 0.0896433 0.00504041 0.0303363 0.170592 0.0192378 0.0193559 0.17773 -0.00157272 0.0140332 0.18787 -0.00600184 -0.000235153 0.00891107 0.000402315 -0.00226083 0.100771 0.00574244 -0.00505575 0.125065 0.0185036 -0.00975232 0.178918 0.0127111 0.00425008 0.203744 0.00168344 -3.73045e-07 6.31326e-05 -7.04708e-06 0.00951481 0.10502 -0.0225826 -0.00675163 0.139616 -0.0093718 -0.0188866 0.193826 0.00643728 -0.0115921 0.21921 0.0100713 -0.0208902 0.0942495 -0.0190505 0.0291384 0.123257 -0.00492262 0.0258286 0.192229 0.0373879 0.0181503 0.186544 -5.85057e-05 0.0132388 0.185803 -0.00808981 

