# vtk DataFile Version 2.0
Some data
ASCII
DATASET STRUCTURED_POINTS
DIMENSIONS 5 3 5
ORIGIN 0.5 0.833333 0.34
SPACING 1 1.66667 0.68
POINT_DATA 75
SCALARS RHO float 
LOOKUP_TABLE default 
0.372056 0.393391 0.295139 0.343646 0.513532 0.372319 0.247717 0.481507 0.230155 0.345098 0.370233 0.401717 0.529412 0.523799 0.488763 0.437754 0.518184 0.590779 0.632556 0.521598 0.447953 0.551279 0.625991 0.525557 0.570825 0.566585 0.549152 0.57068 0.59009 0.55223 0.460975 0.491223 0.615236 0.598321 0.467967 0.482833 0.586677 0.547382 0.570214 0.607658 0.559913 0.579471 0.475119 0.587919 0.594322 0.419141 0.549405 0.489743 0.454079 0.459819 0.473455 0.56736 0.538776 0.436377 0.611121 0.542236 0.613319 0.487983 0.618923 0.550873 0.316324 0.430767 0.551649 0.555587 0.300583 0.40144 0.58283 0.44782 0.455192 0.489077 0.502732 0.556798 0.308366 0.491088 0.411432 

VECTORS VAVG float 
0.000315273 0.000928062 -1.38462e-05 0.00442055 0.0361351 -0.00828434 -0.0182188 0.0990323 0.00575049 0.00510493 0.156332 0.0357602 0.00168833 0.222788 -0.00364792 0.00121706 0.00135336 -3.52405e-06 0.0123909 0.0503349 -0.00483499 -0.00273183 0.0952154 -0.00464714 -0.0275531 0.156356 0.0111565 -0.0232561 0.239847 -0.0640492 -0.000256766 0.00231842 -0.00103076 0.0101235 0.0461487 -0.0112608 0.029958 0.085878 -0.00350811 0.0333922 0.153741 -0.00987847 0.00224645 0.19469 -0.0417347 0.00285244 0.00407198 0.000943305 0.00967503 0.0399892 -0.00255998 -0.0216255 0.0942537 0.00892533 -0.000459688 0.154783 0.046483 -0.0119236 0.188808 0.0252286 0.00727843 0.00804495 -5.31054e-05 0.0174454 0.0433228 -0.00397694 -0.0137873 0.0983065 0.00727767 -0.011753 0.157013 0.0212828 0.0041935 0.225362 -0.0303811 -0.000927149 0.00259841 -0.000579098 0.00364078 0.0417623 -0.0171322 0.0463964 0.0945774 -0.00287294 0.0503215 0.162999 0.00325834 0.0375594 0.221723 -0.00535423 0.00138279 0.00294758 0.000204695 0.00674337 0.0469747 0.00376504 -0.0182252 0.0875189 0.00961598 -0.00357636 0.159344 0.0434111 -0.0184419 0.217994 0.0286528 0.00148829 -1.11291e-05 -0.000510137 0.00277508 0.00930493 -0.00720157 -0.00933515 0.10463 0.00164225 0.010919 0.165144 0.0195181 0.0340754 0.23815 -0.0336036 -2.92773e-05 0.000485743 4.36034e-05 0.00564439 0.0469607 -0.0196228 0.0358965 0.097297 -0.0169899 0.0542178 0.19422 0.0174452 0.0292635 0.216141 0.00785004 0.00169418 0.004987 -0.000224553 0.00628894 0.0453292 -0.00253617 -0.0234548 0.0856763 -0.00310004 -0.0194897 0.174433 0.00525524 0.0155318 0.207042 0.00139708 -0.00185726 -0.00482059 -0.000830748 -0.00926851 -0.0219805 -0.002198 -0.00954512 0.0946426 0.00577016 0.0267218 0.18361 0.00684085 0.0803904 0.267315 -0.043836 0.000451261 0.000201814 -0.000306675 -0.00202171 0.0334273 -0.00913905 -0.00315236 0.0788236 -0.0199921 0.0178636 0.181622 0.00426098 -0.00140929 0.211341 0.00846884 4.29635e-05 0.000294147 -0.000137925 0.00341453 0.0354975 -0.0164248 -0.00520363 0.111457 0.00377105 -0.0284017 0.221362 -0.00888615 0.00473416 0.220292 0.00283468 0.000851652 0.00270712 -0.000111077 0.00486933 0.0176257 0.00273077 0.0284467 0.075154 0.00916893 0.0395183 0.176272 0.00881451 0.0534487 0.22475 0.0013053 -0.00217078 0.0121794 0.00230791 -0.0150281 0.0866926 0.0147609 -0.00519219 0.0798383 -0.0247558 0.00880548 0.196586 -0.029206 0.00930315 0.237253 -0.0279632 

